504
Lattice="21.01668135482279 0.0 0.0 0.0 21.01668135482279 0.0 0.0 0.0 21.01668135482279" Properties=species:S:1:pos:R:3 energy=-3714.8889016247563 pbc="T T T"
C        7.21274331       0.81090667       7.29276617
C        5.83014842       0.60019101       7.62068297
C        7.58461406       0.90629574       5.95480690
C        4.88282325       0.59861431       6.57111810
C        8.24361526       0.96984023       8.35717440
C        6.63536656       0.89372884       4.93469703
C        5.27147419       0.78282080       5.24556448
C        4.22464977       0.91084564       4.18090356
H        8.63899280       1.01885139       5.71200116
H        3.82558860       0.47046098       6.80657756
O        9.45277783       1.07082596       7.95534733
O        7.87308203       1.04529280       9.58280258
H        6.93778198       0.99553620       3.89511413
O        3.00911125       0.95172151       4.57918720
O        4.62809797       1.01154547       2.96992110
N        5.43968933       0.40768828       8.89696803
H        4.46536901       0.25920897       9.12355274
H        6.12255531       0.52709396       9.64848145
C       17.80904594       0.76183775      17.70851587
C       16.45208562       0.40946237      18.02110717
C       18.17089089       0.95714899      16.37819797
C       15.49876758       0.42266645      16.97793885
C       18.82159049       0.93833347      18.78636431
C       17.21951590       0.93397226      15.35931785
C       15.86706965       0.71596565      15.66709928
C       14.80294565       0.85390345      14.62040092
H       19.21622579       1.14914696      16.14369115
H       14.45259251       0.21609982      17.20628694
O       20.03262374       1.07979528      18.40781683
O       18.42630821       0.99046093      20.00642270
H       17.50770482       1.10782926      14.32486268
O       13.59478454       0.89310148      15.04225953
O       15.18506393       0.96831648      13.40721002
N       16.09482004       0.05853634      19.27363027
H       15.14236016      -0.20993171      19.48234578
H       16.75843002       0.19081150      20.03883925
C       15.74924136       1.38820896       7.19546133
C       15.42629562       1.54476838       5.80562882
C       17.08596364       1.31392612       7.57874312
C       16.48009431       1.52379655       4.86479056
C       14.68198219       1.26316679       8.22626210
C       18.11066533       1.30355225       6.63476261
C       17.80481929       1.37062869       5.26597772
C       18.86813957       1.22060289       4.22274462
H       17.32146426       1.24331676       8.63870249
H       16.24974539       1.60856019       3.80252975
O       15.07872950       1.15432491       9.43437120
O       13.45285753       1.22150521       7.85622139
H       19.14941413       1.21923570       6.94518013
O       18.46643024       1.15735982       3.00949916
O       20.07849794       1.12072101       4.62423030
N       14.15008123       1.70566199       5.39978196
H       13.39942805       1.63848508       6.09131733
H       13.92911871       1.81778942       4.41932951
C        5.31222986       1.38447123      17.78637337
C        4.99195217       1.52101924      16.39310184
C        6.64879216       1.31375043      18.17207192
C        6.05068750       1.50745641      15.45678671
C        4.23977023       1.26424182      18.81079656
C        7.67696739       1.29423421      17.23080289
C        7.37475427       1.36136421      15.86125275
C        8.43512683       1.22041230      14.81189117
H        6.88389215       1.25399756      19.23261845
H        5.82263491       1.58921530      14.39353936
O        4.62317758       1.13697556      20.02416150
O        3.01364307       1.24758204      18.43271785
H        8.71554040       1.20220396      17.54106820
O        8.01539868       1.16955934      13.60408894
O        9.65038467       1.11760705      15.19511417
N        3.71886053       1.65524826      15.97142775
H        2.95970091       1.58795965      16.65234333
H        3.50884015       1.74354583      14.98654422
C        7.21784173       7.34865019       1.14245528
C        5.83044745       7.69651278       1.26777367
C        7.57308883       6.01450370       0.95651796
C        4.86924380       6.66783489       1.17877761
C        8.27484173       8.39401535       1.17361229
C        6.60743597       5.01424242       0.86957484
C        5.24618705       5.34281957       0.97988726
C        4.18676580       4.28848456       0.93475833
H        8.62837433       5.76096672       0.87708712
H        3.81082117       6.91474100       1.27028859
O        7.91346192       9.62628523       1.15892132
O        9.48815208       8.00041310       1.16023398
H        6.89250075       3.97477164       0.72126566
O        4.58358850       3.07402855       0.91303051
O        2.97013180       4.68994015       0.96951019
N        5.43583925       8.97109386       1.48155265
H        6.13113776       9.71806369       1.42426503
H        4.45249713       9.20106048       1.53318199
C       15.79232178      15.85490654       1.01715642
C       15.43764565      17.22985002       1.23616210
C       17.12626662      15.51767775       0.80521438
C       16.45781702      18.20292408       1.16660411
C       14.75083594      14.79452292       0.99533267
C       18.12008100      16.49246305       0.76378068
C       17.78201824      17.84408595       0.93185518
C       18.83154813      18.90853288       0.90537497
H       17.38525077      14.47099631       0.65871804
H       16.20697047      19.25352103       1.31870377
O       13.52119664      15.16006614       0.96311309
O       15.14555995      13.57996184       0.95918807
H       19.16051496      16.22064640       0.59999690
O       20.04742005      18.51488419       0.91030767
O       18.42507354      20.12420598       0.92667444
N       14.17303661      17.60146624       1.52435009
H       13.42634007      16.90646510       1.48335545
H       13.94498565      18.57410255       1.68165235
C        5.25456715      17.82999482       1.06399938
C        6.62786240      18.18700741       1.28973974
C        4.92576347      16.50420021       0.79047968
C        7.60680840      17.17370363       1.18855957
C        4.19705290      18.87140708       1.06738825
C        5.90707825      15.51813656       0.72500890
C        7.25587323      15.85423697       0.91768306
C        8.31968234      14.80134573       0.89850591
H        3.88301861      16.23781973       0.62871868
H        8.65650894      17.43209970       1.33071168
O        4.55638291      20.10246872       1.08140955
O        2.98493029      18.47464059       1.01044360
H        5.64992489      14.48117385       0.52113481
O        7.92547040      13.58480531       0.90949917
O        9.53182157      15.20741183       0.90958053
N        6.98948676      19.44414014       1.62040975
H        7.96505676      19.68063244       1.73768680
H        6.28451378      20.18438126       1.61599195
C       15.77101151       7.32035223       0.93911829
C       15.42619429       5.92927638       0.82900623
C       17.10923708       7.68094016       1.07766429
C       16.46092835       4.97173180       0.92109688
C       14.71756347       8.37268236       0.93433049
C       18.11528547       6.71896662       1.14751145
C       17.79039255       5.35472118       1.07092496
C       18.84833897       4.29806247       1.10061390
H       17.36303908       8.73770792       1.13621984
H       16.21357188       3.91144562       0.86213639
O       13.48647335       8.00762131       0.96430135
O       15.11407854       9.58738779       0.95104321
H       19.15691252       7.01023784       1.26148384
O       20.06548328       4.69246242       1.10972063
O       18.44448556       3.08298969       1.06530305
N       14.15487134       5.52950430       0.62729446
H       13.93173888       4.54707357       0.54010562
H       13.40665175       6.22573402       0.63087400
C        0.94430716       5.32699926       5.29327671
C        0.87655152       4.99869014       6.68921492
C        1.03661397       6.66192659       4.90797417
C        0.96633165       6.04960523       7.62757939
C        0.94141947       4.26316704       4.25363340
C        1.09456280       7.68540485       5.85065667
C        1.07123205       7.37691821       7.21978453
C        1.11905853       8.44677878       8.26226348
H        1.06390083       6.89764782       3.84609619
H        0.94958463       5.81569082       8.69239841
O        0.96872438       3.03332451       4.62176233
O        0.96122322       4.65754333       3.04039196
H        1.15201409       8.72546509       5.53866949
O        1.09079415       9.66328041       7.86593935
O        1.13787190       8.04576945       9.47901098
N        0.72063948       3.72516532       7.10546724
H        0.72593466       2.97212349       6.41357950
H        0.66964559       3.50502490       8.09101095
C        1.04537666      15.85847554      15.78001202
C        1.21233566      15.53511179      17.16972358
C        0.85064810      17.18699827      15.40774299
C        1.14108173      16.58355867      18.11366866
C        1.05430420      14.79538500      14.73995097
C        0.80285426      18.20802093      16.35453139
C        0.94760812      17.90405703      17.71707082
C        0.93072639      18.97184211      18.76422425
H        0.72855502      17.42213900      14.35246211
H        1.24652421      16.35456734      19.17468542
O        1.06709695      13.56605188      15.10872836
O        1.00008022      15.18693185      13.52362817
H        0.65659399      19.24307736      16.05373611
O        0.95119133      20.18906444      18.37139635
O        0.94380598      18.56764231      19.97836646
N        1.44486089      14.27131544      17.57818766
H        1.41216367      13.51413439      16.89313958
H        1.55251924      14.05872318      18.56104018
C        1.08078919       5.37435945      17.75211310
C        1.07439501       6.77178829      18.08765980
C        1.05752941       4.99790874      16.41091733
C        1.03460832       7.71485618      17.03612088
C        1.08021956       4.33047781      18.81370492
C        1.03011427       5.94495576      15.38892123
C        1.02288653       7.31330724      15.70337597
C        1.04187742       8.36078238      14.63692615
H        1.05384997       3.93787185      16.16599064
H        1.02305253       8.77910299      17.27472542
O        1.06246561       4.69541736      20.04356544
O        1.05800471       3.11471593      18.41841468
H        1.01664489       5.63951907      14.34482139
O        1.07391815       7.96902885      13.42007904
O        1.06796823       9.57490903      15.04324679
N        1.10384462       7.19180064      19.36743809
H        1.10333645       8.17876934      19.58747257
H        1.12289730       6.49783466      20.11788418
C        1.09992442      17.79974796       5.23961310
C        1.21752196      16.40597806       4.91121835
C        0.92852887      18.17974203       6.56781754
C        1.10419103      15.46357553       5.95744367
C        1.11804307      18.84277467       4.18080907
C        0.83721538      17.23382380       7.58570613
C        0.91845059      15.86624836       7.27838647
C        0.85429206      14.82216013       8.34651356
H        0.85865849      19.24034334       6.80004216
H        1.17317360      14.40001626       5.72571793
O        1.12030029      18.47859741       2.94995721
O        1.07554022      20.05602706       4.57803326
H        0.70358857      17.54141298       8.62003547
O        0.82380174      15.21533536       9.56253564
O        0.88633318      13.60493655       7.94349964
N        1.43806990      15.99580340       3.64660581
H        1.53686263      15.01224085       3.43285291
H        1.45199094      16.68478042       2.89248225
C        5.28549958      11.91247734      15.75367073
C        6.67894610      12.03076081      15.42358360
C        4.90994742      11.84522279      17.09367175
C        7.62494616      11.98042401      16.47276663
C        4.24964661      11.80937080      14.69117362
C        5.85942940      11.81694366      18.11345528
C        7.22765024      11.84075134      17.80100451
C        8.27071029      11.68140564      18.86495483
H        3.85159051      11.79202346      17.33965711
H        8.68798610      12.03879492      16.23490761
O        3.03694324      11.71074555      15.08412595
O        4.62013022      11.77400812      13.46119815
H        5.55703199      11.75896707      19.15659655
O        9.48269454      11.61585448      18.45731490
O        7.87352141      11.58732846      20.07580988
N        7.09118780      12.18258785      14.14844643
H        6.40112645      12.14702721      13.39632508
H        8.07462280      12.26943465      13.92927781
C       15.78220103      11.93867606       5.25488876
C       17.16772429      12.14280392       4.93568488
C       15.40400856      11.82602338       6.59040938
C       18.11194625      12.10313039       5.98749399
C       14.75577146      11.80748396       4.18280462
C       16.35103769      11.79962369       7.61304046
C       17.71791338      11.89761847       7.30755432
C       18.76760508      11.73063623       8.36390179
H       14.34581283      11.73708635       6.82821864
H       19.17193961      12.21492510       5.75757491
O       13.54257213      11.71048360       4.57510131
O       15.13147272      11.74537927       2.95722508
H       16.04482157      11.67577074       8.64915486
O       19.97817940      11.67886514       7.95381993
O       18.37553471      11.60969033       9.57653124
N       17.56542154      12.37179165       3.66816755
H       16.88673043      12.28416620       2.90945893
H       18.54165879      12.52534819       3.45353571
C       15.74752817      11.21148988      17.70476671
C       15.41431983      11.25123872      16.30777124
C       17.08360267      11.08465615      18.07790107
C       16.46627357      11.24811779      15.36422025
C       14.69706515      11.36305789      18.75078121
C       18.10615807      11.07964722      17.12980860
C       17.79902211      11.20007131      15.76457257
C       18.86913790      11.33441414      14.72612872
H       17.32409670      11.00680546      19.13618954
H       16.22899866      11.30697713      14.30133336
O       15.09318315      11.44035429      19.96205454
O       13.46859918      11.45085767      18.38568311
H       19.14791228      11.00239117      17.43299613
O       18.46801477      11.39885911      13.51017033
O       20.07995649      11.42456883      15.12604426
N       14.13368003      11.30421172      15.88808736
H       13.91346913      11.32761658      14.90144506
H       13.38541777      11.35059713      16.58297129
C        5.28639316      11.36976957       7.24626831
C        4.95476324      11.11201867       5.87245943
C        6.62490768      11.50617637       7.60659770
C        5.99549681      11.12238412       4.91768844
C        4.22076193      11.52353770       8.27586396
C        7.63749455      11.49231709       6.64883796
C        7.31806619      11.34639472       5.29042016
C        8.36430661      11.49510859       4.22888042
H        6.87287570      11.64995228       8.65668659
H        5.75640756      10.97083354       3.86519985
O        4.61079414      11.63404103       9.48913065
O        2.99613041      11.58563564       7.89862187
H        8.67778309      11.62025990       6.93861176
O        7.94233672      11.56416012       3.02133707
O        9.57940840      11.58663109       4.61396783
N        3.68398903      10.85778609       5.49321696
H        3.45879485      10.67912523       4.52332768
H        2.92966967      10.97810383       6.17193229
C        5.20851311      15.93511985      11.59549655
C        4.86882364      17.32097710      11.76265688
C        6.54222485      15.57782856      11.41106536
C        5.90594644      18.27797025      11.69811760
C        4.15739690      14.88325108      11.59702191
C        7.54982321      16.53821210      11.36125174
C        7.23055327      17.89796721      11.49624162
C        8.29741068      18.94668657      11.46200573
H        6.79290180      14.52535010      11.29503537
H        5.66559337      19.33463450      11.82010431
O        2.92268097      15.23272086      11.60751196
O        4.56625963      13.67181018      11.53894801
H        8.58800668      16.24782456      11.21703325
O        9.50853785      18.53772436      11.42230896
O        7.90639498      20.16538269      11.51826413
N        3.59799122      17.71156971      11.98859967
H        3.37144686      18.68996544      12.10714125
H        2.85132077      17.01427824      11.96346766
C       17.84311860       7.24028744      11.54138480
C       18.16752803       5.86487053      11.28794895
C       16.51135785       7.60740532      11.71937632
C       17.11417855       4.92710753      11.23077081
C       18.89946311       8.28611179      11.55947263
C       15.48729550       6.66604267      11.65516738
C       15.79097883       5.31634264      11.41629420
C       14.71909675       4.27214390      11.40481078
H       16.27709675       8.65310718      11.90702686
H       17.34070400       3.87652871      11.04637733
O       20.13323704       7.93326255      11.51901419
O       18.49390456       9.49636199      11.57923735
H       14.44948070       6.96123955      11.79192085
O       13.51098704       4.68170041      11.48323030
O       15.11073498       3.05636256      11.36373790
N       19.44198519       5.46847866      11.08701479
H       19.65911513       4.49163017      10.94112038
H       20.19631720       6.14839249      11.20476227
C        5.36651475       7.41725373      11.42686140
C        6.75672231       7.74066717      11.27209688
C        4.99455536       6.09360364      11.64969466
C        7.70526518       6.70136152      11.39543076
C        4.32135964       8.47343354      11.37081767
C        5.94584474       5.08083870      11.74749311
C        7.31063676       5.38503373      11.62338385
C        8.35150350       4.31021531      11.68439917
H        3.93739737       5.85634740      11.74898894
H        8.76708932       6.93192676      11.30267238
O        4.67665090       9.70931759      11.37288041
O        3.10974222       8.06998842      11.37883614
H        5.64439975       4.04961564      11.91607936
O        7.93498122       3.10002585      11.68300246
O        9.57143049       4.69313317      11.68150112
N        7.15435361       9.00067152      10.99846470
H        6.45826026       9.74906034      10.99283883
H        8.13546727       9.22058367      10.88998199
C       17.67595433      15.78472895      11.50322494
C       16.29840501      15.44141054      11.28406544
C       18.02241320      17.11469556      11.72755088
C       15.33772553      16.47645174      11.31276003
C       18.73377203      14.73966570      11.50002189
C       17.05791772      18.11914492      11.75029190
C       15.70883169      17.80036898      11.53053545
C       14.66383892      18.87058590      11.48194917
H       19.06968632      17.36431990      11.88512393
H       14.28698040      16.23473654      11.14867237
O       18.38604019      13.50408772      11.50307702
O       19.94221361      15.15075621      11.54007980
H       17.33595421      19.15554332      11.92847569
O       15.07687038      20.07760677      11.45320567
O       13.44480198      18.47897034      11.42888975
N       15.92137513      14.16990891      11.03847361
H       16.61990091      13.42546432      11.09228817
H       14.94721595      13.93770874      10.89815598
C       11.49783711       5.28234487      15.84745360
C       11.22873218       4.93898938      17.21545360
C       11.74329233       6.60970101      15.51034900
C       11.28369841       5.96370000      18.18655676
C       11.52165504       4.23823446      14.78622479
C       11.77679587       7.60695445      16.48166519
C       11.55182544       7.28219008      17.82875737
C       11.55362981       8.34453318      18.88317840
H       11.91259134       6.86158558      14.46560913
H       11.10085742       5.71840385      19.23351901
O       11.56594484       3.00578284      15.14158016
O       11.54758404       4.65010263      13.58013972
H       11.97086262       8.64150472      16.20815913
O       11.54113372       9.55554327      18.46879647
O       11.52365456       7.95701165      20.10233017
N       10.90521022       3.67769682      17.56733163
H       10.70980255       3.44486637      18.53179844
H       10.98522015       2.93123144      16.87361454
C       11.41204421      17.92548840       7.14756091
C       11.28436543      18.27525062       5.76102660
C       11.61319065      16.59336762       7.50020792
C       11.38217892      17.24796662       4.79799907
C       11.36614633      18.96470891       8.20990866
C       11.71025835      15.59529275       6.53428804
C       11.59440877      15.92406298       5.17439633
C       11.64673779      14.86158727       4.12308709
H       11.69594468      16.33776971       8.55424321
H       11.27876527      17.49275296       3.74008585
O       11.36389253      20.20295607       7.86218663
O       11.38579473      18.55452253       9.41749954
H       11.86729571      14.55750094       6.82075758
O       11.64276438      13.65274035       4.53703301
O       11.64098326      15.24734786       2.90158948
N       11.06519235      19.55026055       5.37593659
H       10.99039511      19.79068840       4.39678106
H       11.05995222      20.28458781       6.08712638
C       11.46263741       7.39072299       5.31934019
C       11.42063551       7.73814147       6.71354726
C       11.52716255       6.04866894       4.95480503
C       11.48400427       6.69762910       7.66698443
C       11.46193222       8.44002703       4.26403532
C       11.56927861       5.03799276       5.91263842
C       11.55039187       5.36347842       7.27852236
C       11.55651237       4.30219786       8.33389412
H       11.54405208       5.79375787       3.89731426
H       11.47190857       6.94271088       8.72940139
O       11.50092339       9.67325761       4.61725913
O       11.46823334       8.03594119       3.05135922
H       11.60856978       3.99275167       5.61511397
O       11.51317388       3.08775668       7.92460063
O       11.55870601       4.69159966       9.54891672
N       11.31424343       9.01900221       7.11882475
H       11.31203940       9.76388182       6.41898757
H       11.28087249       9.24766543       8.10324538
C       11.62295308      17.75286821      15.70176715
C       11.63503914      16.36029210      15.34797333
C       11.55005518      18.11670925      17.04403300
C       11.53400987      15.40508178      16.38275351
C       11.64620081      18.81041745      14.65573931
C       11.46268350      17.15745327      18.04961882
C       11.45281425      15.79274969      17.71588745
C       11.41580300      14.73917941      18.77308331
H       11.55510084      19.17400126      17.30104204
H       11.52830777      14.34284662      16.13636339
O       11.61013945      18.46100321      13.42054440
O       11.65009126      20.01827041      15.06599490
H       11.40553267      17.45145216      19.09519715
O       11.42492896      15.15049057      19.98459438
O       11.43249093      13.52042430      18.38267546
N       11.74326749      15.96040696      14.06579972
H       11.76428888      16.66695684      13.32674584
H       11.75559006      14.97692991      13.83179409
O       20.61693098      20.66534731       2.40907027
H       20.03943972      20.11210359       2.96076101
O        2.43228197       2.47878913       2.43007140
H        3.00681296       3.01223325       3.00420954
O        2.42356292      20.71325271      20.57070554
H        2.98680432      20.16680503      19.99815295
O       20.59962307       2.51715911      20.61680630
H       20.02283275       3.07492480      20.06957507
O        2.37230707      13.06771370      10.08432839
H        2.91124022      13.63840448       9.51205156
O       20.62571755      10.16364764      10.07904107
H       20.06792435       9.61071887       9.50689291
O       20.58644014      12.94925688      12.95601171
H       20.00469471      13.46625540      13.53716952
O        2.49589419      10.21590642      12.87918161
H        3.07362049       9.67199257      13.43951508
O       10.13705622      20.67563001      12.94260192
H        9.57502941      20.12498988      13.51238121
O       12.99018452       2.45818282      12.92007012
H       13.57229894       2.99124242      13.48634333
O       12.89038070      20.71578564      10.01981780
H       13.44533614      20.17292917       9.43640848
O       10.07110133       2.53679806      10.15585267
H        9.49978726       3.10174454       9.60958537
O       12.92259097      12.97055730      20.54427817
H       13.47988380      13.51107131      19.96114603
O       10.06616214      10.15824106      20.65029335
H        9.48512158       9.61846839      20.08878682
O       10.11729349      13.05645803       2.40999816
H        9.55230806      13.62075203       2.96509793
O       12.94585249      10.21612522       2.41366566
H       13.50940739       9.67129256       2.98612308
Zr       1.02856661       1.02641125       3.50573324
Zr       0.98283067       1.12118283      19.51437084
Zr       3.50922076       1.10178452       0.98342599
Zr      19.51429045       1.10018409       1.02656481
Zr       1.00694281       3.58859933       1.04337247
Zr       1.00142943      19.59748312       0.94828623
Zr       1.03413675      11.55354872      14.00561392
Zr       0.95693222      11.63339946       8.98710193
Zr       3.48611914      11.68523918      11.46230773
Zr      19.51785229      11.50477305      11.53702604
Zr       0.91876175      14.10268071      11.53268191
Zr       1.10166955       9.08599487      11.45948170
Zr      11.60613622       1.01547252      14.00306125
Zr      11.45392809       1.15051354       9.03748134
Zr      14.05004065       1.07219284      11.44884139
Zr       9.01639764       1.12276230      11.60159183
Zr      11.54422524       3.61595501      11.55948042
Zr      11.49467950      19.60152764      11.43349764
Zr      11.55575831      11.67158495       3.49448169
Zr      11.46395229      11.55178637      19.49956857
Zr      14.00759513      11.58322991       0.93849904
Zr       9.00012862      11.62299400       1.02905510
Zr      11.50595155      14.11549648       0.93889171
Zr      11.47631615       9.10353214       1.05087139
O        2.04749506       2.15429452      20.97036742
O       20.96336874       0.05671360      20.96020348
O       20.98618055       2.11851947       2.07172424
O        2.06284605      21.03088373       2.02439517
O        0.01268583      10.49537964      12.54131584
O        2.03705887      12.67508129      12.55645059
O        2.07572807      10.59114010      10.41619583
O       20.93145420      12.62894721      10.48432476
O       12.55461784       2.15556412      10.46315633
O       10.42015054      21.07961224      10.46464056
O       10.52036079       2.12825609      12.60578129
O       12.59198297      21.01617770      12.49637291
O       10.47024309      10.58124972       2.08355405
O       12.58202606      12.66972550       1.99659955
O       12.53919310      10.51908820      -0.05233859
O       10.44913842      12.63478144      20.95548010
504
Lattice="21.01668135482279 0.0 0.0 0.0 21.01668135482279 0.0 0.0 0.0 21.01668135482279" Properties=species:S:1:pos:R:3 energy=-3714.8889016247567 pbc="T T T"
C        7.21274331       0.81090667       7.29276617
C        5.83014842       0.60019101       7.62068297
C        7.58461406       0.90629574       5.95480690
C        4.88282325       0.59861431       6.57111810
C        8.24361526       0.96984023       8.35717440
C        6.63536656       0.89372884       4.93469703
C        5.27147419       0.78282080       5.24556448
C        4.22464977       0.91084564       4.18090356
H        8.63899280       1.01885139       5.71200116
H        3.82558860       0.47046098       6.80657756
O        9.45277783       1.07082596       7.95534733
O        7.87308203       1.04529280       9.58280258
H        6.93778198       0.99553620       3.89511413
O        3.00911125       0.95172151       4.57918720
O        4.62809797       1.01154547       2.96992110
N        5.43968933       0.40768828       8.89696803
H        4.46536901       0.25920897       9.12355274
H        6.12255531       0.52709396       9.64848145
C       17.80904594       0.76183775      17.70851587
C       16.45208562       0.40946237      18.02110717
C       18.17089089       0.95714899      16.37819797
C       15.49876758       0.42266645      16.97793885
C       18.82159049       0.93833347      18.78636431
C       17.21951590       0.93397226      15.35931785
C       15.86706965       0.71596565      15.66709928
C       14.80294565       0.85390345      14.62040092
H       19.21622579       1.14914696      16.14369115
H       14.45259251       0.21609982      17.20628694
O       20.03262374       1.07979528      18.40781683
O       18.42630821       0.99046093      20.00642270
H       17.50770482       1.10782926      14.32486268
O       13.59478454       0.89310148      15.04225953
O       15.18506393       0.96831648      13.40721002
N       16.09482004       0.05853634      19.27363027
H       15.14236016      -0.20993171      19.48234578
H       16.75843002       0.19081150      20.03883925
C       15.74924136       1.38820896       7.19546133
C       15.42629562       1.54476838       5.80562882
C       17.08596364       1.31392612       7.57874312
C       16.48009431       1.52379655       4.86479056
C       14.68198219       1.26316679       8.22626210
C       18.11066533       1.30355225       6.63476261
C       17.80481929       1.37062869       5.26597772
C       18.86813957       1.22060289       4.22274462
H       17.32146426       1.24331676       8.63870249