520
Lattice="30.3765861965726 0.0 0.0 0.0 30.3765861965726 0.0 0.0 0.0 30.3765861965726" Properties=species:S:1:pos:R:3:forces:R:3 energy=-3497.3454904814807 stress="-1.981329892132138e-05 -5.2457954412908835e-06 8.5560149004876e-06 -5.2457954412908835e-06 -1.4705056389045887e-05 -1.5263083171472574e-05 8.5560149004876e-06 -1.5263083171472574e-05 5.733606839582552e-07" pbc="T T T"
C        7.33854740       7.99624932       2.35924924       0.00128584      -0.00001317      -0.00024820
C        7.39044195       7.92782509       3.82069397       0.00293934      -0.00075568      -0.00003604
C        7.63258400       6.98947267       0.11937538      -0.00079958      -0.00018975       0.00065197
O        7.80646504       6.83226932       4.34443062       0.00701894       0.00010968      -0.00180354
C        8.01193149       5.86714790      -2.02075285       0.00031231       0.00076316       0.00148923
H        8.35189610       5.00522079      -2.59268795       0.00001743       0.00098405       0.00173876
C        7.51120436       6.98539385      -2.71246489       0.00126685       0.00038262       0.00117113
C        7.44126305       6.99836172      -4.19687853       0.00327628      -0.00083879       0.00101072
C        8.06933412       5.86850333      -0.63704488      -0.00059858       0.00005898       0.00117062
H        8.45540494       5.00152034      -0.09757646      -0.00080239      -0.00023273       0.00062362
O        7.93995044       5.99602715      -4.81139265       0.00310383      -0.00134097       0.00195895
C        7.07616601       8.10209460      -1.98172678       0.00004244      -0.00004209       0.00109154
H        6.68898099       8.96675654      -2.51837359      -0.00054859      -0.00091513       0.00064036
C        7.13319932       8.11281848      -0.59488884      -0.00062854       0.00021544       0.00106449
H        6.78944382       8.98787860      -0.04344460      -0.00035953      -0.00021572       0.00202528
O        6.88494815       8.02431500      -4.71930074       0.00489628      -0.00043782      -0.00007266
C        7.69724251       6.97091570       1.56703350       0.00022126      -0.00091107       0.00042703
O        7.01434221       8.98002238       4.45598129      -0.00202706      -0.00349609       0.00033696
H        6.98616729       8.94426466       1.95922187       0.00011402       0.00034647       0.00047061
H        8.06995018       6.04609748       2.01452841      -0.00063426      -0.00194337      -0.00013610
C       22.86505506      23.52157391       2.72453088       0.00059502       0.00008425       0.00052596
C       22.96289268      23.44557689       4.18283140      -0.00035736      -0.00031105       0.00026288
C       23.21029514      22.53953500       0.47752081      -0.00022191       0.00080172       0.00090219
O       23.50434871      22.38627471       4.66844102      -0.00097560      -0.00103676      -0.00036594
C       23.60769729      21.41301040      -1.65526774      -0.00036954       0.00052311       0.00162858
H       23.94630010      20.54618004      -2.22050232      -0.00073071       0.00113812       0.00075758
C       23.13057758      22.53679968      -2.35482448       0.00008773       0.00066737       0.00231016
C       23.09897996      22.54350400      -3.84117949      -0.00000856       0.00115420       0.00247401
C       23.64726669      21.41438198      -0.27178040      -0.00024102       0.00048970       0.00140585
H       24.01870992      20.54396865       0.27220834       0.00005388       0.00039010       0.00109628
O       22.62142035      23.59174528      -4.39358125      -0.00017339       0.00233376       0.00454760
C       22.69159308      23.65658099      -1.63058678      -0.00036343       0.00088893       0.00175321
H       22.32155195      24.52405869      -2.17471868      -0.00015023       0.00050182       0.00115631
C       22.72657185      23.66612960      -0.24240528      -0.00055613       0.00142183       0.00163237
H       22.38404328      24.54290778       0.30759276      -0.00037771       0.00158727       0.00180878
O       23.55451645      21.50156886      -4.42178434      -0.00155092       0.00199288      -0.00037671
C       23.26767711      22.51877061       1.92494342       0.00059994      -0.00013488       0.00062502
O       22.50353017      24.43987466       4.85288196      -0.00018079      -0.00018301       0.00011490
H       22.43270482      24.43992607       2.33471759       0.00028997       0.00069886       0.00236628
H       23.67399714      21.60536435       2.36693130       0.00082128      -0.00057996       0.00005563
C       22.59606696       8.45322645       3.02608362       0.02526591       0.00631093       0.03928249
C       22.47248161       8.35906617       4.48016966      -0.02050626       0.01227912       0.06843235
C       22.16605712       7.53581605       0.76958224      -0.00701833      -0.00502571      -0.02926324
O       21.83106564       7.34564597       4.93948432      -0.02664922      -0.05997509      -0.03862447
C       21.59142598       6.48450363      -1.35931533       0.00284520       0.00311875      -0.05117717
H       21.10951079       5.68865729      -1.92424131      -0.00873299      -0.00607867      -0.00068954
C       22.26579785       7.50051316      -2.06026628       0.00028649       0.00145401      -0.02166824
C       22.33279421       7.48585666      -3.54832913      -0.00476750       0.01015152       0.04129506
C       21.54743833       6.50011442       0.02337962      -0.00897962      -0.02802210      -0.05140443
H       21.03199217       5.71012518       0.57173665      -0.01910522      -0.01904701      -0.00644609
O       21.66047142       6.58199051      -4.15109863       0.04214102       0.04120083      -0.02293542
C       22.89098516       8.52959053      -1.33551057      -0.00653053      -0.01089163      -0.03503588
H       23.42042695       9.30969084      -1.88112424      -0.00845669      -0.00155848       0.01462384
C       22.84319264       8.55968674       0.05225361       0.01037436       0.00054463      -0.03756971
H       23.33136449       9.36945032       0.59557632      -0.01460058      -0.01602497       0.03921545
O       23.06462268       8.39111550      -4.07519712      -0.03232720      -0.04223099      -0.04878672
C       22.08545506       7.51621103       2.21215828      -0.01415167       0.01095617       0.01990862
O       23.00881361       9.29485857       5.17493235       0.06650497       0.02711285       0.01986640
H       23.13742038       9.31871250       2.65369924      -0.00164439       0.01974874      -0.00550515
H       21.55428354       6.66457360       2.64230525      -0.01815982      -0.03257363       0.00307415
C        8.31948023      23.17469722       2.18731007       0.00012802      -0.00015364      -0.00073825
C        8.13914289      23.11823119       3.63978818       0.00036202      -0.00022968      -0.00073391
C        7.82261269      22.32190477      -0.08688368      -0.00043381      -0.00053824      -0.00060840
O        7.37104991      22.18899812       4.08337579       0.00079295      -0.00060363      -0.00060206
C        7.18406746      21.36387904      -2.24244266      -0.00075464      -0.00060186      -0.00038214
H        6.64311083      20.61952646      -2.82430694      -0.00096547      -0.00065810       0.00001906
C        7.93733453      22.34127381      -2.91839613      -0.00068210      -0.00074765      -0.00041692
C        7.97330692      22.36160949      -4.40538012      -0.00061590      -0.00084671      -0.00031928
C        7.12908358      21.35321404      -0.85989482      -0.00063108      -0.00054487      -0.00042464
H        6.54271382      20.59637771      -0.33577265      -0.00053718      -0.00030534       0.00002557
O        7.25025003      21.48788917      -4.99189706      -0.00077156      -0.00067140      -0.00037833
C        8.64193217      23.29815688      -2.16959912      -0.00061884      -0.00077983      -0.00061894
H        9.23050880      24.04840684      -2.69518724      -0.00065695      -0.00089386      -0.00062150
C        8.59089439      23.29634091      -0.78113748      -0.00048846      -0.00064105      -0.00070866
H        9.13814113      24.04700022      -0.20997696      -0.00043621      -0.00068922      -0.00077394
O        8.71646917      23.24619860      -4.94800115      -0.00043561      -0.00108978      -0.00045230
C        7.72398875      22.30027391       1.35826082      -0.00008876      -0.00030351      -0.00048218
O        8.75752028      23.99829217       4.33729308       0.00026699       0.00026949      -0.00117291
H        8.96515838      23.97210132       1.82740575      -0.00002937      -0.00008230      -0.00110281
H        7.10351148      21.50169853       1.77326157      -0.00002527      -0.00029231      -0.00016482
C        2.23201453       8.23055214       7.14583788      -0.00491752      -0.00597470       0.00513502
C        3.68861827       8.11407021       7.22509057      -0.00587951       0.00044544      -0.00314003
C       -0.02319713       7.74876114       8.05373909       0.00773773      -0.00903182       0.00441900
O        4.15938185       7.49614819       8.24852814       0.00652252       0.00296412      -0.00992227
C       -2.16122880       7.11968327       9.05870924       0.00094894       0.00569418      -0.00495979
H       -2.73017606       6.61333681       9.83684241      -0.00668577       0.00616961      -0.00713917
C       -2.85345624       7.79885916       8.03869026      -0.00179398       0.00236888      -0.00360795
C       -4.33815244       7.84421422       8.02705087      -0.01323850      -0.00351705       0.01675878
C       -0.77732961       7.10054889       9.06854155       0.00085674      -0.00436326      -0.00423476
H       -0.23440784       6.57843471       9.85884196      -0.01070231       0.00114057       0.00144876
O       -4.93696047       7.15891734       8.92096820      -0.01786751      -0.00760029       0.01680752
C       -2.12396213       8.44767459       7.03078418       0.00816598       0.00743815      -0.00811845
H       -2.66381123       8.97215148       6.24455550      -0.00114318       0.00895763      -0.01150650
C       -0.73606978       8.42867195       7.02970057       0.01401008      -0.00673696      -0.00076636
H       -0.18097420       8.93563753       6.24032726       0.00452002       0.00505960      -0.00389499
O       -4.87328549       8.57142648       7.12079264      -0.00111434      -0.00681264       0.01636800
C        1.42405005       7.69619834       8.07788838      -0.00223121      -0.00199659       0.00719992
O        4.36903130       8.63327595       6.26781025       0.01291883      -0.00011199       0.01228379
H        1.85191725       8.76735211       6.27965716       0.00278392      -0.00627483       0.00857021
H        1.85989603       7.16700454       8.92940787      -0.00376905       0.00159051      -0.00159311
C       -2.19928011      22.07197579      23.14314212       0.00196497      -0.00004239       0.00071521
C       -3.65564126      22.20837099      23.07236327       0.00231201       0.00268128      -0.00024875
C        0.06683923      22.60773532      22.29460031       0.00070843       0.00020536      -0.00081519
O       -4.11499673      22.92880835      22.11368403       0.00416121       0.00360390      -0.00048701
C        2.21661534      23.28047194      21.34532261       0.00027304      -0.00020125      -0.00090559
H        2.79422185      23.83256123      20.60582547       0.00045923      -0.00031112      -0.00090531
C        2.89939713      22.52473000      22.31608300      -0.00009789      -0.00010435      -0.00038063
C        4.38611516      22.48420167      22.33110064      -0.00025187      -0.00016958      -0.00011490
C        0.83329374      23.32022789      21.33406214       0.00029728      -0.00010209      -0.00139213
H        0.30273159      23.90706531      20.58203029       0.00005590      -0.00047322      -0.00165692
O        4.97892233      23.18768393      21.44675413      -0.00027063       0.00067530       0.00050355
C        2.15737255      21.81034211      23.27084712      -0.00014631       0.00016639      -0.00014422
H        2.68795140      21.22438595      24.01956955      -0.00096995       0.00021730       0.00046310
C        0.76882055      21.84523170      23.26775059       0.00001659       0.00034796      -0.00049414
H        0.20439578      21.28643528      24.01481684      -0.00067323       0.00090744      -0.00058118
O        4.92142334      21.74974763      23.22800802      -0.00069726      -0.00104815      -0.00055963
C       -1.37988272      22.67704852      22.26588963       0.00112749       0.00006602       0.00027785
O       -4.34047942      21.60231596      23.97127538      -0.00038502       0.00476375      -0.00099414
H       -1.82828893      21.45544881      23.95831323       0.00359459      -0.00128442      -0.00089549
H       -1.80447329      23.28126882      21.45994623       0.00093075      -0.00023001       0.00054091
C        2.67107895      23.15354023       6.80921214      -0.00014057      -0.00028638      -0.00055024
C        4.12955850      23.22573400       6.90200085       0.00005301       0.00005407      -0.00043072
C        0.42160348      23.40836775       7.81051979      -0.00088083      -0.00010940      -0.00047945
O        4.61674016      23.67044496       8.00441414       0.00018574      -0.00087664      -0.00007841
C       -1.71619176      23.69477325       8.96154320      -0.00028667       0.00064309      -0.00011311
H       -2.28511443      23.96223026       9.85052044      -0.00171380      -0.00054102      -0.00079178
C       -2.41009177      23.28711711       7.80736705      -0.00008350       0.00154581       0.00014452
C       -3.89589503      23.22386866       7.80091779       0.00003408       0.00318812       0.00200419
C       -0.33321460      23.75513010       8.96294806      -0.00046029       0.00011316      -0.00002498
H        0.20672514      24.07200677       9.85719068      -0.00212233      -0.00008171       0.00100273
O       -4.48617255      23.58838935       8.87359113      -0.00104097       0.01000080      -0.00122182
C       -1.68023299      22.94186481       6.65878775      -0.00119113       0.00122341      -0.00071648
H       -2.21923031      22.62587434       5.76704225      -0.00203432       0.00130346      -0.00033250
C       -0.29268571      22.99892091       6.65132598      -0.00111416       0.00008292      -0.00075843
H        0.26112168      22.72865613       5.75194264      -0.00081382      -0.00043811      -0.00055739
O       -4.44328942      22.81142256       6.72200887       0.00114436      -0.00342661       0.00382601
C        1.86859485      23.47433749       7.83876076      -0.00072027      -0.00017434      -0.00090880
O        4.80125356      22.84031485       5.87669978      -0.00017690       0.00103628      -0.00108889
H        2.28380653      22.80703893       5.85416703       0.00001326      -0.00047229      -0.00060670
H        2.30709270      23.81140597       8.78159836      -0.00049548       0.00016812      -0.00107393
C       -2.66138407       7.36728673      23.58586345      -0.01384807      -0.01073643      -0.00452425
C       -4.11813174       7.30687784      23.50282605      -0.02925872      -0.00386780      -0.00005840
C       -0.43028536       7.00645612      22.59132508       0.01916231       0.00204229      -0.00019094
O       -4.61410594       6.80882257      22.42678825      -0.01507279      -0.01254167      -0.00607817
C        1.69621561       6.66912878      21.43730105       0.00820651       0.00137186      -0.00053888
H        2.25895988       6.37847955      20.55164298      -0.00009609      -0.00021122       0.00103039
C        2.39886952       7.09816968      22.57840164       0.00516318      -0.00069222      -0.00208432
C        3.88278804       7.16629225      22.57030509      -0.00000464      -0.00147983      -0.00324369
C        0.31330939       6.62080928      21.44450929       0.01130768      -0.00026582      -0.00729818
H       -0.23447665       6.28847374      20.56087302      -0.00304135      -0.00064907      -0.00207702
O        4.46638123       6.80352472      21.49365223       0.00256488       0.00283582      -0.00273790
C        1.68034812       7.46855611      23.72612283       0.00895667       0.00020922      -0.00312852
H        2.22600117       7.79447557      24.61027152       0.00642841      -0.00273795      -0.00641604
C        0.29335241       7.42696609      23.74057675       0.01081139       0.00373884       0.00643201
H       -0.25138197       7.71957069      24.63824471      -0.00258239      -0.00032187       0.00329004
O        4.43718210       7.58491004      23.64385780       0.00209829      -0.00532793      -0.00326794
C       -1.87634124       6.97173949      22.56970818       0.00732000      -0.00080636       0.00294971
O       -4.78337343       7.75344380      24.50674398      -0.00652303       0.00887353       0.00749394
H       -2.26112275       7.76484879      24.51514653      -0.01449823       0.00220947       0.00057279
H       -2.32890730       6.59860473      21.64767285       0.00724350      -0.00036768      -0.00736288
C        6.85171226       2.78277895       7.35838460       0.00080711       0.00028665       0.00019962
C        6.94800020       4.24139017       7.27808288       0.00274751       0.00102597      -0.00017767
C        7.81106775       0.52427184       7.03138728       0.00009255       0.00040932       0.00020484
O        8.01503879       4.72346905       6.75075157       0.00315153       0.00026192       0.00004834
C        8.91815606      -1.62295525       6.65815335      -0.00038941       0.00095731       0.00052871
H        9.77517927      -2.20027234       6.31502143      -0.00019119       0.00190584       0.00052542
C        7.80205892      -2.30586703       7.17578716      -0.00011432       0.00081652       0.00010843
C        7.79335637      -3.79106577       7.24948589       0.00042171       0.00068119      -0.00027492
C        8.92236461      -0.24070122       6.58646930      -0.00001896       0.00072190       0.00047867
H        9.78736352       0.29008141       6.18451809      -0.00008083       0.00106981       0.00086810
O        8.82820787      -4.38580324       6.79645586       0.00064617       0.00065380       0.00008550
C        6.69320092      -1.56631308       7.61685755       0.00005211       0.00108939      -0.00008896
H        5.83024822      -2.09738628       8.01540260       0.00052185       0.00058767      -0.00051116
C        6.68925539      -0.17922182       7.54970237      -0.00039243       0.00104218       0.00021998
H        5.82154592       0.38235002       7.89649552      -0.00034699       0.00137733       0.00021130
O        6.75164650      -4.32792006       7.75799318       0.00041070       0.00002139      -0.00091990
C        7.84346460       1.97058561       6.95393616       0.00085761       0.00040376      -0.00001095
O        5.95714788       4.91353381       7.74251956       0.00293125       0.00060850      -0.00074208
H        5.92494343       2.40292742       7.78184914      -0.00060323       0.00234935       0.00051504
H        8.75619952       2.40021108       6.53325880       0.00088273       0.00109122      -0.00039597
C       23.58549043      -2.72561652      23.04157723      -0.00014092      -0.00197373      -0.00333649
C       23.47576054      -4.18497980      23.08288668       0.00023115       0.00804329      -0.00112390
C       22.62264122      -0.47212880      23.40461981      -0.00938717      -0.01540493      -0.00440418
O       22.39764019      -4.66662518      23.58983756       0.00738482      -0.00513637      -0.00350433
C       21.48676076       1.65951124      23.78116044       0.00121722       0.00240668       0.00696378
H       20.60705184       2.22128776      24.09034745       0.00701083       0.01278409       0.01357750
C       22.63049308       2.36121336      23.35869695      -0.00253616       0.00573858       0.00770614
C       22.64943446       3.84983743      23.35812262      -0.00350207      -0.00427604      -0.00689126
C       21.48352886       0.27551784      23.80434811       0.00021503      -0.00018883       0.00152873
H       20.59844557      -0.27317985      24.13184819      -0.00495897       0.01453437       0.00932442
O       21.64509392       4.43664982      23.88424103      -0.01573422      -0.01356226      -0.02087820
C       23.75837621       1.63667616      22.93716097      -0.00540488       0.00075107       0.00619831
H       24.63471214       2.17965829      22.58646215      -0.00247023       0.00987959       0.01315856
C       23.76735325       0.24784543      22.96555098      -0.01376615      -0.00264983       0.00199275
H       24.65439694      -0.30288379      22.65028457      -0.00783205       0.00720624       0.00053223
O       23.67758185       4.39422740      22.83094681       0.01622756      -0.02695324       0.01150024
C       22.58759085      -1.92019099      23.44427688       0.00167182      -0.00749694      -0.00675845
O       24.46117229      -4.85856739      22.60995686      -0.00221965       0.00257923       0.00438694
H       24.52139324      -2.33854627      22.64520653      -0.00483639      -0.00948181       0.00028833
H       21.66316006      -2.35868859      23.83000869       0.00610110       0.00800668      -0.00582512
C        7.25212023       2.20713905      22.04364500       0.00233122      -0.00203695      -0.00006033
C        7.31616736       3.66044344      22.21344121       0.00415241      -0.00234418       0.00069975
C        8.10852592      -0.06631247      22.53584116       0.00170116      -0.00114604       0.00208957
O        8.23665864       4.10430225      22.99136719       0.00483207      -0.00437418       0.00129173
C        9.07329113      -2.22082065      23.16812323       0.00104316      -0.00074736       0.00171062
H        9.81933640      -2.80242285      23.70695548       0.00069353      -0.00112285       0.00151672
C        8.09674158      -2.89720425      22.41433642       0.00089953       0.00001503       0.00127507
C        8.07549047      -4.38417274      22.37549027       0.00048283       0.00032355       0.00074353
C        9.08026680      -0.83839613      23.22609494       0.00156046      -0.00096435       0.00234237
H        9.83636301      -0.31306729      23.81231373       0.00151580      -0.00105220       0.00250098
O        8.94582772      -4.97627275      23.09745827       0.00033900      -0.00007882       0.00059884
C        7.13795055      -2.14909853      21.71137281       0.00118250       0.00019566       0.00135897
H        6.38891185      -2.67518517      21.12164221       0.00091480       0.00144769       0.00093179
C        7.13575090      -0.76087643      21.76568948       0.00156158      -0.00012687       0.00182003
H        6.38334751      -0.19094359      21.21952836       0.00222574       0.00094040       0.00218282
O        7.18918006      -4.91887765      21.62888547       0.00046086       0.00056157       0.00060204
C        8.12717113       1.37837025      22.63840361       0.00174935      -0.00137664       0.00137540
O        6.44994133       4.35580788      21.57420145       0.00487827      -0.00044391       0.00176400
H        6.45249858       1.84773498      21.40027425       0.00215553      -0.00422229       0.00111611
H        8.92458281       1.79355998      23.26005734       0.00124597      -0.00171612       0.00209156
C       23.03183845      -2.19773361       8.30382396       0.00458523      -0.00029411       0.00179952
C       22.96593104      -3.65491780       8.16689338      -0.00266954      -0.00322189      -0.00256674
C       22.20365907       0.07337360       7.76051724      -0.00621053       0.00211321      -0.00540458
O       22.01776377      -4.11750471       7.43539061      -0.00246213       0.00022020      -0.00550685
C       21.27635081       2.23784715       7.09905513       0.00320856       0.00745504      -0.00202939
H       20.53632443       2.82768892       6.56051025      -0.00315915      -0.00972310      -0.00693122
C       22.27300361       2.90944010       7.82965694       0.00506903       0.00320653      -0.00081198
C       22.31794889       4.39827443       7.85761798       0.01734424      -0.00214000       0.01422489
C       21.24142336       0.85374644       7.06506961      -0.00392414       0.00902606      -0.00153735
H       20.46808657       0.33530703       6.49511909       0.00511680      -0.00860033       0.00377903
O       21.47534315       5.01829755       7.12641834       0.01333275      -0.01972079       0.00815543
C       23.22755512       2.15268797       8.53256683      -0.00968714      -0.00335120      -0.00799608
H       23.99844520       2.66547895       9.10645271      -0.02695526       0.02266900      -0.01873777
C       23.20055112       0.76371122       8.50285928      -0.01079100       0.00094778      -0.00699910
H       23.94799188       0.18658428       9.04857246       0.00003441       0.02939646       0.00039678
O       23.20790805       4.90674741       8.61949190       0.01204096       0.00749371       0.01251083
C       22.15956656      -1.37430983       7.69605799       0.00378655       0.00061073       0.00341328
O       23.86047153      -4.33613776       8.78391727      -0.00637835      -0.00594703      -0.00085542
H       23.84180897      -1.82992818       8.92884201       0.00486814       0.00704157       0.00372336
H       21.34867369      -1.79626149       7.09649073       0.00134571       0.01087235       0.00039269
C        7.79611875      22.07707854      17.34763419       0.00000240       0.00070665       0.00011128
C        7.81092777      22.19177286      18.80635064       0.00007434       0.00055517       0.00021072
C        7.34539172      23.01296587      15.10154675      -0.00019791       0.00048761       0.00003583
O        7.33182952      23.27032111      19.31172018      -0.00023968       0.00032491       0.00042766
C        6.87106917      24.10071159      12.96360377      -0.00001737       0.00036337       0.00002891
H        6.50256329      24.95305065      12.39512497       0.00010228       0.00023718      -0.00014146
C        7.36006880      22.98002539      12.26757932      -0.00002710       0.00036258       0.00015957
C        7.39381992      22.96609258      10.78092984       0.00004331       0.00024841       0.00026255
C        6.86333628      24.11668283      14.34792875      -0.00012421       0.00047252      -0.00001437
H        6.48705855      24.98649725      14.88961970      -0.00013847       0.00056287      -0.00019391
O        6.90958998      23.99002076      10.19014063       0.00025789       0.00025845       0.00003797
C        7.82883703      21.87513126      12.99616351      -0.00013524       0.00038529       0.00018479
H        8.20286442      21.00727690      12.45532913      -0.00015411       0.00038424       0.00025579
C        7.82419479      21.88222501      14.38461678      -0.00020739       0.00039950       0.00014802
H        8.19375668      21.01770709      14.93644779      -0.00028491       0.00039068       0.00018872
O        7.90794952      21.93118905      10.23751468      -0.00009969       0.00008232       0.00037255
C        7.34852287      23.06178061      16.54945733      -0.00021670       0.00061515       0.00006198
O        8.30366474      21.19996406      19.45908910       0.00045948       0.00057866      -0.00003861
H        8.18607222      21.14082231      16.95520497       0.00019611       0.00072747       0.00011683
H        6.95614541      23.98069478      16.99240145      -0.00035186       0.00060660       0.00006428
C       23.03961395       7.19920612      18.16560465      -0.00034494       0.00267534       0.00010865
C       22.95490468       7.29122082      19.62495823       0.00247165       0.00421859       0.00113446
C       22.64189313       8.13794702      15.90702292       0.00159915      -0.00267731      -0.00246705
O       22.41927163       8.35432048      20.10628226       0.00099530      -0.00135840       0.01246249
C       22.14862375       9.20812402      13.76462654       0.00032205      -0.00298547       0.01076174
H       21.77115149      10.05538695      13.19370323       0.00267380      -0.01072651       0.00725988
C       22.61930630       8.07639383      13.07409455       0.00139413       0.00481663       0.00162764
C       22.57014857       8.03332214      11.58986968      -0.00084078      -0.00458461      -0.00344238
C       22.15985751       9.23742803      15.14810746      -0.00366798       0.00633550       0.00990887
H       21.79016892      10.11228302      15.68512835      -0.00590990       0.01351629       0.00664469
O       23.07586832       7.00344419      11.02814762       0.00288984      -0.00183966      -0.00175811
C       23.11815648       6.98636435      13.80559060      -0.00337328       0.00780854       0.00448636
H       23.49225670       6.11612281      13.26788149      -0.00616553       0.01385057       0.00280679
C       23.13264525       7.00976625      15.19441450       0.00249593      -0.00914577       0.00402137
H       23.51730835       6.15607557      15.75225103       0.00526998      -0.01239447       0.00649085
O       22.01988126       9.03367559      11.01498191      -0.00258816      -0.01076317      -0.00996528
C       22.61492649       8.18447004      17.35556947       0.00140528      -0.00319499      -0.00578727
O       23.41922042       6.30081184      20.29724476       0.00419145      -0.00359766      -0.00613749
H       23.47525339       6.27903006      17.78328118      -0.00057746       0.00137249       0.00043147
H       22.20714184       9.10167608      17.78883389       0.00243602      -0.00510110      -0.00104649
C       22.60020802      22.55179360      12.77484888       0.00054785       0.00152535      -0.00126279
C       22.68842085      22.72426426      11.32263196       0.00295754       0.00422039      -0.00095318