520
Lattice="30.375351869084454 0.0 0.0 0.0 30.375351869084454 0.0 0.0 0.0 30.375351869084454" Properties=species:S:1:pos:R:3:forces:R:3 energy=-3497.343843735298 stress="-4.1572902001914486e-05 -3.1148504109635685e-06 -9.059281254282318e-07 -3.1148504109635685e-06 -4.6921212895356895e-05 -4.853765633270003e-06 -9.059281254282318e-07 -4.853765633270003e-06 -4.4548717420137885e-06" pbc="T T T"
C        7.34426268       7.99731042       2.36593749      -0.00225239       0.00028743      -0.00268212
C        7.39317193       7.92734856       3.82736850      -0.00389821      -0.00087154      -0.00215717
C        7.63298405       6.98843501       0.12618381       0.00042375       0.00022254      -0.00151299
O        7.82970720       6.83868756       4.34804135      -0.00608940      -0.00125550      -0.00089426
C        8.01493110       5.86748707      -2.01431310      -0.00070883      -0.00016815      -0.00043561
H        8.35639219       5.00583095      -2.58568853      -0.00085485      -0.00015257      -0.00062146
C        7.51480864       6.98562013      -2.70676580      -0.00136814       0.00060660       0.00038940
C        7.44433376       6.99690289      -4.19163163      -0.00365996       0.00153425       0.00035071
C        8.06960059       5.86762124      -0.63039920       0.00031390      -0.00007229      -0.00063661
H        8.45377488       4.99970220      -0.09105866       0.00054787       0.00070280       0.00031352
O        7.92801281       5.98625857      -4.80432641      -0.00277778       0.00007871       0.00293914
C        7.07824914       8.10145916      -1.97551423      -0.00049596       0.00075936       0.00027870
H        6.69123654       8.96618876      -2.51212111       0.00013400       0.00062406      -0.00022804
C        7.13310090       8.11137109      -0.58838222       0.00011355       0.00066080      -0.00015141
H        6.78736470       8.98534742      -0.03637036       0.00031580       0.00092388      -0.00074435
O        6.90212939       8.02900221      -4.71769959      -0.00488817       0.00153475       0.00118047
C        7.69897001       6.97033611       1.57395450      -0.00011439       0.00043502      -0.00188807
O        6.99336586       8.96963184       4.46425799      -0.00438776       0.00028276      -0.00474979
H        6.99231884       8.94540928       1.96597401      -0.00189593       0.00129567      -0.00207873
H        8.06971711       6.04451070       2.02115192       0.00066517       0.00155251       0.00002578
C       22.86324234      23.51768740       2.73035097      -0.00027143       0.00088870      -0.00113660
C       22.96125825      23.43924638       4.18818549       0.00063914      -0.00082987      -0.00070835
C       23.20849368      22.54064630       0.48198146       0.00092182      -0.00070126      -0.00085268
O       23.50048401      22.37860229       4.67307139       0.00091271      -0.00280118      -0.00504979
C       23.60561435      21.41610423      -1.65146073       0.00047187      -0.00076814      -0.00122740
H       23.94368667      20.54960417      -2.21735760       0.00103908      -0.00143049       0.00009649
C       23.12898064      22.54035103      -2.35023941      -0.00011716      -0.00132721      -0.00213308
C       23.09599966      22.54597188      -3.83694312       0.00083810      -0.00192666      -0.00222268
C       23.64533182      21.41622651      -0.26806221       0.00055087      -0.00034353      -0.00114625
H       24.01676416      20.54548431       0.27543477       0.00008104      -0.00014096      -0.00085411
O       22.61432389      23.59225594      -4.38948051       0.00133345      -0.00110572      -0.00139321
C       22.68976128      23.65968686      -1.62488712       0.00052580      -0.00123683      -0.00169049
H       22.31939324      24.52766877      -2.16802054       0.00052773      -0.00096713      -0.00128388
C       22.72461502      23.66823193      -0.23653451       0.00099658      -0.00139713      -0.00160889
H       22.38220522      24.54447804       0.31470912       0.00086638      -0.00187922      -0.00134423
O       23.55284793      21.50510751      -4.41905391       0.00244693      -0.00418009       0.00251527
C       23.26678694      22.51687076       1.92899971       0.00025774       0.00012738      -0.00021683
O       22.50315652      24.43417955       4.85781333       0.00321834      -0.00193743       0.00252594
H       22.42931154      24.43632005       2.34301076       0.00127962       0.00141741      -0.00257485
H       23.67429853      21.60300175       2.36892139       0.00013738       0.00033892       0.00126788
C       22.00686730       7.03850501      -2.30124107      -0.02629269      -0.00307305      -0.00655332
C       22.18340847       7.12259280      -3.75104281       0.03406810       0.00155075       0.01182304
C       22.44958846       7.93541369      -0.03316278       0.02691300       0.03301783       0.04631504
O       22.85937307       8.13265750      -4.17300753      -0.00640261      -0.02388631      -0.03070234
C       23.05682846       8.98411974       2.08972573       0.00086649       0.01079122       0.03223685
H       23.55158987       9.77742385       2.64663248       0.02365219       0.01147571      -0.00517824
C       22.38577334       7.97435589       2.80299799      -0.00508298      -0.01361890      -0.03560958
C       22.37849906       7.97667518       4.29328169      -0.00157478       0.00358271      -0.06055059
C       23.08669388       8.96577514       0.70621846       0.01661026       0.02214826       0.05292913
H       23.61121269       9.74584252       0.14990970      -0.00438936      -0.00001904       0.03954646
O       23.12210266       8.84900261       4.85952362      -0.05192545      -0.04182550       0.04142308
C       21.73185377       6.95998687       2.08270643      -0.02530817      -0.02048308       0.00022217
H       21.19408432       6.18805347       2.62955899      -0.00171365      -0.01579727       0.03735090
C       21.76059716       6.92539347       0.69306427       0.01602990       0.01899919       0.00747603
H       21.25853125       6.12062262       0.15238746       0.01984963       0.04034949      -0.01382311
O       21.63262438       7.10557161       4.85394296       0.05905283       0.05130983       0.04178951
C       22.53958501       7.95330341      -1.47592564      -0.00261487      -0.00699399      -0.00061163
O       21.66375041       6.19391834      -4.46551596      -0.00157161       0.05357662      -0.02416081
H       21.42017924       6.20008635      -1.93837050      -0.01025909      -0.04074638       0.01038081
H       23.10190043       8.79131472      -1.89474578       0.00510800       0.01537574      -0.00652064
C        8.31939619      23.17538393       2.18908408       0.00011193      -0.00002969       0.00014535
C        8.13790013      23.11834607       3.64152989       0.00008491      -0.00005745       0.00038268
C        7.82479545      22.32425632      -0.08638634      -0.00038782      -0.00046455       0.00039363
O        7.36890429      22.18965912       4.08474806       0.00003432      -0.00033775      -0.00001255
C        7.18838165      21.36700728      -2.24284037      -0.00086450      -0.00059826       0.00048182
H        6.64819483      20.62263440      -2.82540103      -0.00082682      -0.00045557       0.00011386
C        7.94152056      22.34525395      -2.91769601      -0.00080533      -0.00079476       0.00004583
C        7.97714345      22.36644544      -4.40459373      -0.00076418      -0.00102285      -0.00057524
C        7.13232723      21.35562153      -0.86038717      -0.00050995      -0.00035158       0.00053142
H        6.54587004      20.59825510      -0.33714789      -0.00058459      -0.00037607       0.00009163
O        7.25473271      21.49183668      -4.99053473      -0.00146849      -0.00190504       0.00084197
C        8.64544365      23.30189371      -2.16800341      -0.00070482      -0.00068877       0.00004700
H        9.23408355      24.05256914      -2.69291965      -0.00077138      -0.00094245      -0.00050623
C        8.59341126      23.29923995      -0.77955796      -0.00057503      -0.00070288       0.00007940
H        9.13999465      24.04970170      -0.20750060      -0.00039266      -0.00059486      -0.00059041
O        8.71875022      23.25192680      -4.94779832       0.00013423      -0.00038801       0.00111987
C        7.72460169      22.30179007       1.35867106      -0.00016854      -0.00036667       0.00053187
O        8.75659713      23.99789294       4.33946836       0.00037873       0.00019186      -0.00005628
H        8.96572717      23.97275693       1.83023020       0.00005298       0.00005350      -0.00077156
H        7.10343858      21.50312757       1.77245465      -0.00018859      -0.00066057       0.00039919
C        2.20645267       8.22178187       7.15900041      -0.00014601      -0.00045105      -0.00457112
C        3.66238949       8.10544678       7.24768869       0.00417098      -0.00025165      -0.00319175
C       -0.06263635       7.76507349       8.03225902       0.00077766       0.00092733       0.00089131
O        4.12939626       7.47457898       8.26439164       0.01055435       0.00228521      -0.00529714
C       -2.22310808       7.16830742       9.00598053       0.00776387       0.00212403       0.00380790
H       -2.80521940       6.67334674       9.78161658      -0.01371304       0.00249850      -0.01247264
C       -2.89506012       7.85029661       7.97388330       0.01101114       0.00861672       0.00385750
C       -4.38076192       7.88737297       7.94368804      -0.00391682      -0.00005230       0.00709924
C       -0.84021213       7.12799096       9.03442730       0.00826211      -0.00095426       0.00581451
H       -0.31568913       6.59975680       9.83239736      -0.01343074      -0.00971827       0.01409160
O       -4.97025047       7.22098301       8.85963559      -0.01015016       0.00093146      -0.01641330
C       -2.14182357       8.49490512       6.97922511       0.00992690       0.00380579       0.00033918
H       -2.66094625       9.03073031       6.18616075      -0.01243240      -0.00961692       0.00374819
C       -0.75352815       8.45627306       6.99968999       0.00752435       0.00321026      -0.00171079
H       -0.17880113       8.95920193       6.22177497      -0.00818187       0.00431905      -0.00935949
O       -4.91947672       8.57686505       7.01361442      -0.02040870      -0.00039800       0.00961190
C        1.38360103       7.69436759       8.08169218      -0.00498775       0.00340519      -0.00742587
O        4.34694911       8.63908108       6.30103590       0.01109144      -0.00124415       0.00133269
H        1.83468168       8.75678197       6.28854530       0.01085536       0.00706177      -0.00530574
H        1.80086283       7.16031118       8.93969730      -0.00013197       0.00636750      -0.01163209
C       -2.19476605      22.07105717      23.14362804      -0.00231087       0.00010550      -0.00035903
C       -3.65086688      22.20657238      23.07102975      -0.00281016      -0.00252169       0.00050846
C        0.06998049      22.60982954      22.29521810      -0.00162753      -0.00062874       0.00000612
O       -4.10780174      22.91571855      22.10279852      -0.00398733      -0.00236157       0.00085853
C        2.21973529      23.28270252      21.34763513      -0.00051789      -0.00092582       0.00009369
H        2.79858324      23.83558849      20.60964889      -0.00115062      -0.00115694      -0.00047151
C        2.90089191      22.52448288      22.31770171       0.00066329      -0.00001549      -0.00035645
C        4.38698454      22.48310045      22.33331138       0.00120714       0.00047241      -0.00091856
C        0.83662296      23.32357614      21.33568729      -0.00081130      -0.00111626       0.00032491
H        0.30665246      23.91185556      20.58433832      -0.00029073      -0.00111459       0.00001546
O        4.97958825      23.18450196      21.44730531       0.00068004       0.00072688      -0.00130608
C        2.15866210      21.80866767      23.27106364      -0.00014495       0.00048245      -0.00037121
H        2.68811419      21.22105458      24.01925678       0.00168079       0.00115124      -0.00109076
C        0.77047659      21.84453043      23.26701221      -0.00063898      -0.00000400       0.00027692
H        0.20502754      21.28454416      24.01229658       0.00086889      -0.00043349       0.00143330
O        4.92185951      21.75044135      23.23184544       0.00025876       0.00010653      -0.00051696
C       -1.37643134      22.67960981      22.26780059      -0.00189526      -0.00025102      -0.00098302
O       -4.33887777      21.61291852      23.97605940       0.00057604      -0.00650249       0.00068027
H       -1.82233999      21.45455127      23.95807317      -0.00390253       0.00105103       0.00119293
H       -1.80104201      23.28673640      21.46416756      -0.00149772      -0.00078159      -0.00175730
C        2.66816813      23.15513773       6.81168576       0.00010069      -0.00049746      -0.00056883
C        4.12695274      23.22737989       6.90489762       0.00005471      -0.00055249      -0.00014141
C        0.41738778      23.40646638       7.81298689       0.00042513       0.00029944      -0.00125462
O        4.61452139      23.67065542       8.00772404      -0.00052382       0.00022473      -0.00009874
C       -1.72101318      23.69361233       8.96303793       0.00139019       0.00046689      -0.00036625
H       -2.29024861      23.96105118       9.85185276      -0.00044921       0.00107671      -0.00169698
C       -2.41457589      23.28669663       7.80842709       0.00159263      -0.00131092       0.00030303
C       -3.90020570      23.22151572       7.80372431       0.00095788      -0.00298138       0.00036332
C       -0.33798505      23.75273115       8.96531970       0.00125084       0.00058816      -0.00084302
H        0.20110072      24.06845253       9.86046352       0.00017769       0.00056993      -0.00035411
O       -4.48819138      23.60448267       8.87077376      -0.00020919      -0.00509214       0.00054567
C       -1.68452255      22.94106797       6.66019001       0.00088585      -0.00014117      -0.00078276
H       -2.22376817      22.62537696       5.76846643       0.00008333       0.00036462      -0.00059467
C       -0.29682716      22.99670376       6.65378001       0.00075779       0.00040203      -0.00147625
H        0.25745610      22.72494955       5.75515952       0.00019125       0.00046773      -0.00176083
O       -4.44866285      22.78876971       6.73336977       0.00571339      -0.00307286      -0.00212918
C        1.86458261      23.47367848       7.84117144       0.00006532      -0.00012940      -0.00068987
O        4.79892847      22.84320832       5.87915840      -0.00037028      -0.00140432      -0.00018224
H        2.28148345      22.81052411       5.85568702      -0.00038747      -0.00075591      -0.00042746
H        2.30271600      23.81047440       8.78429241      -0.00102193      -0.00026856      -0.00018081
C       -2.68662966       7.36200055      23.57135237      -0.00021655       0.01355859       0.00655895
C       -4.14639555       7.29917132      23.46690918       0.00667210       0.00449706       0.01071462
C       -0.43007056       7.00512591      22.60404485      -0.01075467       0.00012030      -0.00609622
O       -4.62186620       6.78507817      22.39013227       0.02234159       0.00952347      -0.00312800
C        1.69403513       6.66796172      21.44270518       0.00397789      -0.00235964      -0.00194114
H        2.25289752       6.37575325      20.55544939       0.00429773       0.00094399      -0.00719868
C        2.40065648       7.09837511      22.57997397       0.00020955       0.00208210       0.00145138
C        3.88559958       7.16843615      22.56412561      -0.00086167       0.00181716       0.00423705
C        0.31134828       6.61855669      21.45588246       0.00052548      -0.00155978      -0.00115486
H       -0.23958577       6.28344261      20.57515773       0.00462657       0.00115836      -0.00477311
O        4.46604213       6.82266007      21.47970746      -0.00393237      -0.00571449       0.00504932
C        1.68435690       7.46757503      23.73011872      -0.00155854      -0.00083364       0.00328128
H        2.23638025       7.79102251      24.61105910      -0.00432621       0.00448721       0.00719644
C        0.29588248       7.42679786      23.75114559      -0.00411612      -0.00350717      -0.00561930
H       -0.25031008       7.71779652      24.64914958       0.00008852       0.00091308      -0.00438523
O        4.44486327       7.57194425      23.64112702      -0.00411510       0.00410084       0.00502362
C       -1.87787395       6.96590756      22.57345418      -0.01498561       0.00062370      -0.00433139
O       -4.82611939       7.76062641      24.45424194      -0.01227887       0.00005753      -0.00089606
H       -2.30315074       7.77202179      24.50228649       0.00899544      -0.00185077       0.00858064
H       -2.31206534       6.58650477      21.64504144      -0.02200037      -0.00393803      -0.00129361
C        6.85361982       2.78821758       7.35589490      -0.00139804      -0.00342474       0.00165520
C        6.95186613       4.24692214       7.27682970      -0.00131172      -0.00394562       0.00017823
C        7.80942497       0.52762998       7.02890072       0.00064528      -0.00020555       0.00042591
O        8.02108539       4.72768152       6.75324692      -0.00111451      -0.00263095       0.00186665
C        8.91543056      -1.62075035       6.65719617       0.00040331       0.00097642       0.00010030
H        9.77229997      -2.19821943       6.31400881       0.00019139       0.00075506       0.00026359
C        7.79985038      -2.30326750       7.17635190       0.00020212       0.00085630      -0.00010327
C        7.79159780      -3.78880878       7.25146436      -0.00009128       0.00015915      -0.00031363
C        8.91985388      -0.23850146       6.58391880       0.00059087       0.00075755       0.00032356
H        9.78475733       0.29146813       6.18070648       0.00036244       0.00083017       0.00057480
O        8.82633934      -4.38386532       6.79836886       0.00082127       0.00147908      -0.00077829
C        6.69159938      -1.56251746       7.61732017       0.00009242       0.00085658      -0.00011991
H        5.82885298      -2.09304252       8.01705979      -0.00001130       0.00102542      -0.00033221
C        6.68783785      -0.17525385       7.54871503       0.00036972       0.00055464       0.00007496
H        5.82063797       0.38717351       7.89560911       0.00054286       0.00049309      -0.00012441
O        6.75051246      -4.32586112       7.76105897      -0.00092718       0.00135355      -0.00010297
C        7.84340138       1.97407976       6.95035358       0.00023944      -0.00087084       0.00103771
O        5.95962157       4.91945114       7.73733919      -0.00355641      -0.00592963      -0.00120858
H        5.92561605       2.41027279       7.77818457      -0.00172223      -0.00369542       0.00194569
H        8.75615296       2.40216736       6.52799960      -0.00048668       0.00111845       0.00125435
C       23.59311932      -2.75655954      23.03558915      -0.00396923      -0.00421583       0.00056283
C       23.48027681      -4.21466045      23.08121918      -0.00393343      -0.00262899       0.00083324
C       22.64380801      -0.50069358      23.40905905       0.00725297       0.00004977       0.00762856
O       22.39362193      -4.69362834      23.57088106      -0.00501186       0.00168067       0.00481766
C       21.52146152       1.64435308      23.74444082       0.00597459       0.00400590      -0.00946610
H       20.65133100       2.22390052      24.04958591      -0.00855868      -0.01220079      -0.01983415
C       22.65626406       2.32523395      23.26666193       0.00881286       0.01102024       0.00193398
C       22.64532733       3.80247423      23.11412172      -0.01486787       0.00661894       0.00791279
C       21.51649797       0.26248749      23.81646340      -0.00027301       0.00029303       0.00233576
H       20.63653720      -0.26854188      24.18336523      -0.00745237      -0.01427568      -0.00912673
O       21.53335604       4.39226552      23.33788453      -0.01532644      -0.02560546       0.03164200
C       23.80011867       1.59184921      22.91898337       0.00382666       0.00140527      -0.00397684
H       24.68968064       2.12981022      22.59558956       0.00763627      -0.01592035      -0.02021405
C       23.79882561       0.20482595      22.97450988       0.00995251      -0.00012072       0.00365915
H       24.68698022      -0.35514673      22.68204415       0.00813289      -0.00690789      -0.00416416
O       23.74483983       4.35149592      22.76226324      -0.00955013      -0.00390067      -0.01038922
C       22.59767356      -1.94788302      23.43900524       0.00058511      -0.00269874       0.00244259
O       24.47380938      -4.89103332      22.62960929       0.00106744       0.00702060      -0.00286945
H       24.53168856      -2.37801109      22.63749302      -0.00776787       0.01065802       0.00522357
H       21.66748156      -2.38157832      23.81466241      -0.00119601      -0.00186230       0.00366594
C        7.24081200       2.20572346      22.03983832       0.00107883      -0.00017747       0.00005245
C        7.30490029       3.65859294      22.21057994       0.00015167      -0.00022661      -0.00037581
C        8.10315682      -0.06584002      22.52729732       0.00094742       0.00061036       0.00155656
O        8.22612489       4.09839441      22.99000821      -0.00036309       0.00046731      -0.00014073
C        9.06790047      -2.21986290      23.15906063       0.00092684       0.00022581       0.00154003
H        9.81399393      -2.80202100      23.69725504       0.00067090       0.00001797       0.00151145
C        8.09006468      -2.89552646      22.40631356       0.00148792      -0.00062246       0.00162684
C        8.06840303      -4.38207672      22.36888051       0.00168418      -0.00156616       0.00131547
C        9.07573376      -0.83759744      23.21675216       0.00059352       0.00033845       0.00144162
H        9.83260676      -0.31242669      23.80211198       0.00059619      -0.00044792       0.00180183
O        8.93926406      -4.97308573      23.09109130       0.00243144      -0.00036073       0.00173135
C        7.13100620      -2.14770612      21.70345265       0.00174656      -0.00010394       0.00179814
H        6.38125483      -2.67318188      21.11410544       0.00243703      -0.00149592       0.00224326
C        7.12963555      -0.75970497      21.75766544       0.00127291       0.00003967       0.00154527
H        6.37752343      -0.18907446      21.21190328       0.00061965      -0.00146525       0.00106152
O        7.18175153      -4.91755576      21.62341976       0.00087261       0.00020555       0.00029707
C        8.12063969       1.37861225      22.62990762       0.00120369       0.00069284       0.00171325
O        6.44044464       4.35818750      21.57345515      -0.00062100      -0.00235851      -0.00209767
H        6.43808611       1.84443030      21.40165297       0.00173359       0.00127563      -0.00206085
H        8.92055008       1.79410224      23.24805425       0.00107987       0.00084383       0.00237588
C       23.03481452      -2.20584661       8.30720583       0.00157229       0.00229133       0.00007686
C       22.96541355      -3.66181803       8.16581273       0.00280528       0.00155736       0.00194758
C       22.20631195       0.06382284       7.76529745      -0.00273992      -0.00562907      -0.00406592
O       22.02056574      -4.12051599       7.42747330       0.00238387      -0.00093441       0.00433440
C       21.27146850       2.21993400       7.09214351       0.00192913      -0.00782151       0.00539622
H       20.52973114       2.80259195       6.54810277       0.00858366       0.00527767       0.00700593
C       22.26612824       2.89424723       7.82544419       0.00663614      -0.02190558       0.01019538
C       22.30739401       4.37836187       7.86151039       0.00095449      -0.01344876       0.00770238
C       21.24071310       0.83650446       7.06648403       0.00009255      -0.00339447       0.00022609
H       20.47023330       0.30752574       6.50221713      -0.00140568       0.01531127      -0.00456811
O       21.42609274       4.98365598       7.16630895      -0.00916436      -0.02255846       0.00707507
C       23.22305722       2.14622610       8.52922142       0.00670452      -0.01968654       0.00807405
H       23.98850106       2.67024576       9.09920881      -0.00010098       0.00192211      -0.00273718
C       23.20194839       0.75836403       8.50529381      -0.00377667      -0.01582201      -0.00305336
H       23.95325842       0.19025621       9.05443578      -0.00392437      -0.00457948      -0.00345684
O       23.22174218       4.89797389       8.58649430      -0.00962414       0.01712535      -0.01399981
C       22.16192449      -1.38266546       7.70133925       0.00206739       0.00106963      -0.00030529
O       23.85458349      -4.34575630       8.78642874       0.00108422      -0.00341963      -0.00130745
H       23.84451604      -1.83740635       8.93244750       0.00078802      -0.00069323       0.00145065
H       21.34989381      -1.80270237       7.10188088       0.00478688       0.00261601       0.00325629
C        7.79625704      22.07300149      17.34894186      -0.00007202       0.00066949      -0.00073533
C        7.81059949      22.18796902      18.80748800      -0.00008183       0.00063518      -0.00104907
C        7.34642252      23.01027450      15.10335681      -0.00022955       0.00047997      -0.00043818
O        7.33195334      23.26724463      19.31172317       0.00028087       0.00073206      -0.00074429
C        6.87095545      24.09832860      12.96592305       0.00010866       0.00026511      -0.00070299
H        6.50195233      24.95069505      12.39782187       0.00012571       0.00034773      -0.00051156
C        7.35985728      22.97786481      12.26942823       0.00004771       0.00029673      -0.00076631
C        7.39285554      22.96426314      10.78269796       0.00021908       0.00023223      -0.00073525
C        6.86390909      24.11410614      14.35024328      -0.00013820       0.00045732      -0.00063308
H        6.48776912      24.98374251      14.89232396      -0.00020086       0.00047007      -0.00047839
O        6.90883527      23.98860467      10.19240568       0.00006450       0.00023352      -0.00066419
C        7.82934092      21.87299716      12.99763136      -0.00012670       0.00044352      -0.00043962
H        8.20336568      21.00528367      12.45658447      -0.00020015       0.00046088      -0.00043278
C        7.82544336      21.87988295      14.38607885      -0.00023565       0.00031056      -0.00038417
H        8.19572928      21.01554287      14.93771267      -0.00037237       0.00009863      -0.00040405
O        7.90619887      21.92927207      10.23864299       0.00052256       0.00013282      -0.00034196
C        7.34965076      23.05848828      16.55120753      -0.00029655       0.00070465      -0.00051930
O        8.30231358      21.19634738      19.46118953      -0.00033943       0.00026799      -0.00130573
H        8.18537829      21.13643187      16.95651414       0.00022535       0.00073273      -0.00028964
H        6.95801861      23.97753696      16.99453257      -0.00048058       0.00056998      -0.00044495
C       23.04313002       7.19260881      18.10241411       0.00046316      -0.00446005      -0.01818679
C       22.96128804       7.27862276      19.56261646      -0.00283140       0.00029429      -0.02273039
C       22.64499677       8.13495172      15.84517970      -0.00139826       0.00381368       0.00516788
O       22.42687449       8.33825734      20.05055081      -0.00187386       0.00617294      -0.02724211
C       22.14641995       9.20626074      13.70481304       0.00143226      -0.00393693       0.00811425
H       21.76578295      10.05301016      13.13546449       0.00343192      -0.00899466       0.00040168
C       22.61833095       8.07549468      13.01303042      -0.00027743      -0.00386475       0.00689730
C       22.56908710       8.02744755      11.52996555       0.00161323      -0.00333020      -0.00684015
C       22.16123519       9.23525756      15.08829185      -0.00191851       0.00481396       0.00878854
H       21.79325587      10.10997571      15.62711265      -0.00490863       0.00835163       0.00332136
O       23.07427393       6.99527171      10.97130661      -0.00869969       0.00811469      -0.02289973
C       23.11815725       6.98545169      13.74297338       0.00017501      -0.00053859       0.01379354
H       23.49208603       6.11568509      13.20481566      -0.00357559       0.00754921      -0.00050972
C       23.13382066       7.00699776      15.13147884       0.00239545      -0.00389076       0.01494671
H       23.51838563       6.15327593      15.68919972       0.00723278      -0.01623980      -0.00084920
O       22.01936955       9.02525183      10.94984478       0.00755576      -0.00083735      -0.01106304
C       22.62149762       8.17992983      17.29358850      -0.00428370       0.01013023      -0.00253927
O       23.42904352       6.28201319      20.22309106      -0.00734085       0.00272338      -0.01110664
H       23.47445639       6.27205655      17.71692662       0.00679381      -0.01125945       0.00236558
H       22.21891540       9.09754807      17.72958157      -0.00491950       0.00738873       0.00316047
C       22.59717479      22.55347345      12.76931862       0.00012363      -0.00112398       0.00185318