520
Lattice="30.37843084207715 0.0 0.0 0.0 30.37843084207715 0.0 0.0 0.0 30.37843084207715" Properties=species:S:1:pos:R:3:forces:R:3 energy=-3497.341426646755 stress="-1.3108623411815562e-05 -4.7854347642085135e-06 8.079968823931684e-06 -4.7854347642085135e-06 -4.448185306259048e-06 -1.4261647821061993e-05 8.079968823931684e-06 -1.4261647821061993e-05 1.0413517539035523e-05" pbc="T T T"
C        7.34256810       7.99814646       2.36124830       0.00127113      -0.00029716      -0.00018067
C        7.39532462       7.93051301       3.82283422       0.00294789      -0.00122217      -0.00006994
C        7.63260882       6.98888469       0.12157652      -0.00054930      -0.00019698       0.00043355
O        7.81220346       6.83545067       4.34694001       0.00723557      -0.00034481      -0.00195548
C        8.01396641       5.86621356      -2.01826561       0.00034372       0.00075061       0.00113920
H        8.35471916       5.00421809      -2.58962295      -0.00003079       0.00099930       0.00134085
C        7.51408545       6.98429116      -2.71085749       0.00119983       0.00036091       0.00097995
C        7.44567113       6.99750419      -4.19558265       0.00301505      -0.00083300       0.00103417
C        8.06964811       5.86770151      -0.63439470      -0.00036412       0.00006216       0.00079515
H        8.45493295       5.00071218      -0.09435454      -0.00046672      -0.00024680       0.00017885
O        7.94486067       5.99566798      -4.81054132       0.00282089      -0.00138236       0.00203170
C        7.07766976       8.10073564      -1.98041105       0.00011384      -0.00008215       0.00085090
H        6.69069348       8.96527974      -2.51740629      -0.00050352      -0.00093989       0.00052684
C        7.13299420       8.11162718      -0.59342427      -0.00033377       0.00021359       0.00078799
H        6.78783374       8.98639934      -0.04235854       0.00009881      -0.00023812       0.00186364
O        6.88964656       8.02381287      -4.71774116       0.00451296      -0.00050105      -0.00006234
C        7.69779337       6.97133318       1.56935385       0.00043684      -0.00098650       0.00032060
O        7.01895221       8.98271012       4.45803324      -0.00210150      -0.00366865      -0.00011266
H        6.99227139       8.94676349       1.96075890      -0.00016738      -0.00001379       0.00056862
H        8.06859406       6.04597208       2.01732870      -0.00017914      -0.00203265      -0.00036349
C       22.86039626      23.51706694       2.72415934       0.00058490       0.00033532       0.00057074
C       22.95868005      23.44042096       4.18252533      -0.00015955      -0.00013257       0.00029487
C       23.20795547      22.53899738       0.47566098      -0.00037975       0.00095205       0.00078348
O       23.50268511      22.38231181       4.66785711      -0.00074395      -0.00101077      -0.00072754
C       23.60524454      21.41555051      -1.65888040      -0.00046425       0.00071354       0.00158676
H       23.94395768      20.54947286      -2.22522173      -0.00079084       0.00131563       0.00091945
C       23.12784676      22.54014852      -2.35703083      -0.00000049       0.00075003       0.00228630
C       23.09605277      22.54834369      -3.84350912       0.00001372       0.00114010       0.00265734
C       23.64496656      21.41499045      -0.27534991      -0.00032295       0.00057986       0.00133005
H       24.01650381      20.54376630       0.26727823       0.00000291       0.00056565       0.00124336
O       22.61599451      23.59564307      -4.39549766       0.00021320       0.00260395       0.00498894
C       22.68913530      23.65893725      -1.63111825      -0.00050434       0.00093446       0.00165643
H       22.31897768      24.52713155      -2.17402935      -0.00027996       0.00050435       0.00114169
C       22.72455003      23.66664438      -0.24287039      -0.00081367       0.00158287       0.00151485
H       22.38255993      24.54286591       0.30834353      -0.00070813       0.00170904       0.00181255
O       23.55422174      21.50778182      -4.42450924      -0.00181131       0.00174541      -0.00005505
C       23.26490073      22.51610380       1.92317848       0.00056437       0.00007518       0.00062593
O       22.49712631      24.43354948       4.85278832       0.00002678       0.00032354      -0.00029951
H       22.42578019      24.43478668       2.33533377       0.00023103       0.00096983       0.00235821
H       23.67228838      21.60260255       2.36400317       0.00091274      -0.00044252       0.00000897
C       22.61177424       8.44800525       3.02360827       0.02086608       0.00469534       0.04069031
C       22.48100447       8.35505106       4.47762315      -0.02389220      -0.00059370       0.05978334
C       22.17036148       7.54404911       0.76358833      -0.00683557      -0.00565002      -0.03226414
O       21.83026520       7.34650172       4.93535146      -0.02221186      -0.04586397      -0.04178964
C       21.58025055       6.50802966      -1.36887189       0.00297562       0.00303995      -0.05274454
H       21.08431379       5.72288201      -1.93660791      -0.00963841      -0.00800715       0.00257158
C       22.27601893       7.51152264      -2.06688016       0.00001920       0.00224807      -0.02104044
C       22.34419586       7.49804586      -3.55526233      -0.00633456       0.00770671       0.04634850
C       21.53272529       6.52248972       0.01376938      -0.01004148      -0.02839405      -0.05347359
H       20.99926230       5.74228466       0.55888679      -0.01798932      -0.01844345      -0.00480359
O       21.66559606       6.59880548      -4.15817098       0.04377024       0.04421491      -0.02385313
C       22.91961570       8.52660994      -1.33843549      -0.00621064      -0.00956152      -0.03755532
H       23.46506634       9.29719250      -1.88169811      -0.00719940       0.00043439       0.01456034
C       22.86961452       8.55527540       0.04942781       0.00988644       0.00065114      -0.04017946
H       23.37277469       9.35445510       0.59485288      -0.01599480      -0.01787333       0.04056582
O       23.08249875       8.39841004      -4.08129170      -0.03591772      -0.04746810      -0.05010028
C       22.08570684       7.52284479       2.20594134      -0.01194494       0.00998639       0.02152688
O       23.02129054       9.28775678       5.17310831       0.06717541       0.02756893       0.01925730
H       23.16935192       9.30438837       2.65362081      -0.00404092       0.01839359      -0.00054549
H       21.53786961       6.67993772       2.63226195      -0.01938971      -0.03223713       0.00624644
C        8.31877982      23.17577733       2.19028919       0.00037882       0.00013374      -0.00069714
C        8.13605523      23.11821186       3.64258907       0.00051857       0.00003213      -0.00073194
C        7.82658249      22.32642162      -0.08636176      -0.00038120      -0.00053788      -0.00068814
O        7.36579775      22.19026921       4.08511309       0.00088992      -0.00044048      -0.00080716
C        7.19300893      21.37048341      -2.24431076      -0.00092616      -0.00061658      -0.00043487
H        6.65376657      20.62613136      -2.82776336      -0.00128783      -0.00078273       0.00033926
C        7.94611749      22.34953091      -2.91809421      -0.00095322      -0.00077854      -0.00049381
C        7.98151156      22.37176609      -4.40524990      -0.00101403      -0.00095399      -0.00019388
C        7.13540153      21.35812858      -0.86187990      -0.00066218      -0.00061211      -0.00047776
H        6.54856216      20.60012776      -0.33999490      -0.00042635      -0.00025605       0.00039617
O        7.25930256      21.49665886      -4.99088971      -0.00127306      -0.00078645      -0.00015787
C        8.64916545      23.30563638      -2.16680657      -0.00084924      -0.00086500      -0.00080975
H        9.23819126      24.05683954      -2.69054561      -0.00101733      -0.00104427      -0.00091078
C        8.59572447      23.30194135      -0.77829156      -0.00052835      -0.00065669      -0.00092445
H        9.14152936      24.05212947      -0.20509803      -0.00039619      -0.00066166      -0.00109508
O        8.72205274      23.25789485      -4.94892320      -0.00081975      -0.00116519      -0.00031091
C        7.72456116      22.30297619       1.35863712       0.00016922      -0.00010327      -0.00041260
O        8.75527798      23.99691474       4.34108792       0.00052190       0.00074946      -0.00148046
H        8.96592391      23.97302504       1.83260394       0.00021464       0.00013431      -0.00136973
H        7.10260654      21.50428705       1.77124348       0.00023402      -0.00019764      -0.00016846
C        2.23455051       8.23209442       7.14617933      -0.00449397      -0.00559344       0.00534593
C        3.69114875       8.11566217       7.22442835      -0.00483994       0.00011231      -0.00202798
C       -0.01932837       7.75082478       8.05824541       0.00674050      -0.00915666       0.00401319
O        4.16209295       7.49935039       8.24879890       0.00567449       0.00196772      -0.00802104
C       -2.15602609       7.11746194       9.06373938       0.00153060       0.00538377      -0.00465263
H       -2.72394281       6.60890714       9.84121802      -0.00672807       0.00688121      -0.00765890
C       -2.84966306       7.79725666       8.04510472      -0.00109446       0.00224193      -0.00372193
C       -4.33439627       7.84054803       8.03290662      -0.01366268      -0.00482733       0.01698488
C       -0.77203990       7.10049354       9.07285121       0.00123005      -0.00438248      -0.00435511
H       -0.22776658       6.57817622       9.86211608      -0.01125950       0.00124930       0.00135374
O       -4.93384485       7.15110345       8.92314794      -0.01596230      -0.00702099       0.01662483
C       -2.12153872       8.44869712       7.03789916       0.00821011       0.00744320      -0.00837830
H       -2.66242838       8.97381897       6.25282813      -0.00102110       0.00925546      -0.01169773
C       -0.73366652       8.43136312       7.03575028       0.01376616      -0.00645750      -0.00129782
H       -0.17979868       8.94012494       6.24667280       0.00486135       0.00519255      -0.00373666
O       -4.86888662       8.57066055       7.12870144      -0.00195619      -0.00519261       0.01237402
C        1.42797475       7.69942833       8.08042035      -0.00260610      -0.00278464       0.00744015
O        4.37158278       8.63305490       6.26619991       0.01150305       0.00031280       0.01170139
H        1.85366943       8.76706744       6.27924616       0.00123541      -0.00626044       0.00869451
H        1.86529413       7.17188592       8.93217407      -0.00392120       0.00091024      -0.00078294
C       -2.20078762      22.07321770      23.14178435       0.00206195      -0.00003461       0.00105260
C       -3.65694556      22.21170524      23.07085299       0.00240843       0.00256063      -0.00003520
C        0.06655863      22.60963633      22.29724787       0.00058819       0.00013598      -0.00079864
O       -4.11546795      22.93298768      22.11243754       0.00377524       0.00343199      -0.00001717
C        2.21761411      23.28404684      21.35240717       0.00007081      -0.00031621      -0.00104533
H        2.79627858      23.83819921      20.61528394       0.00006779      -0.00048595      -0.00117307
C        2.89891916      22.52417780      22.32097790      -0.00002580      -0.00002301      -0.00057649
C        4.38555507      22.48290444      22.33625104      -0.00025487       0.00004019      -0.00034286
C        0.83440294      23.32532285      21.34026269       0.00002672      -0.00020007      -0.00159025
H        0.30513894      23.91581532      20.59020536      -0.00042728      -0.00067537      -0.00194496
O        4.97778057      23.18171488      21.44782383      -0.00061086       0.00127780       0.00029427
C        2.15558969      21.80696434      23.27258249      -0.00014594       0.00036799      -0.00025928
H        2.68518953      21.21817140      24.01977823      -0.00109088       0.00045264       0.00039770
C        0.76704785      21.84272896      23.26806863      -0.00004127       0.00037796      -0.00036144
H        0.20142165      21.28131797      24.01225821      -0.00084621       0.00098436      -0.00031406
O        4.92146620      21.75313915      23.23659883      -0.00125932      -0.00119879      -0.00068213
C       -1.38004229      22.68042178      22.26730609       0.00106568       0.00004015       0.00032621
O       -4.34235080      21.60637383      23.96981593      -0.00076019       0.00482602      -0.00107865
H       -1.83100832      21.45375552      23.95528041       0.00370837      -0.00103604      -0.00045493
H       -1.80329330      23.28776071      21.46300029       0.00077479      -0.00040613       0.00057526
C        2.66822307      23.15737409       6.81388143      -0.00002117      -0.00062650      -0.00065567
C        4.12671368      23.23020687       6.90695127       0.00011222      -0.00017832      -0.00051205
C        0.41813016      23.40585670       7.81545496      -0.00086537      -0.00011256      -0.00057932
O        4.61387680      23.67385393       8.00976228       0.00005401      -0.00103124      -0.00007123
C       -1.72074315      23.69027062       8.96512194      -0.00027591       0.00075124      -0.00022604
H       -2.29045652      23.95739473       9.85369931      -0.00153369      -0.00047113      -0.00084987
C       -2.41363607      23.28211682       7.81050242      -0.00007960       0.00167928       0.00010075
C       -3.89951148      23.21959235       7.80251856       0.00016432       0.00334944       0.00195869
C       -0.33779002      23.75185123       8.96741146      -0.00046937       0.00013444      -0.00012857
H        0.20123446      24.06943592       9.86195941      -0.00201012      -0.00010435       0.00083202
O       -4.49061019      23.58304653       8.87512434      -0.00079165       0.01026568      -0.00125327
C       -1.68264066      22.93636409       6.66279636      -0.00126049       0.00145350      -0.00074609
H       -2.22075645      22.61928490       5.77090019      -0.00199222       0.00158063      -0.00036713
C       -0.29511098      22.99454656       6.65625711      -0.00121462       0.00021674      -0.00080256
H        0.25948112      22.72382148       5.75749730      -0.00085225      -0.00024489      -0.00054850
O       -4.44626234      22.80908537       6.72252240       0.00134342      -0.00339592       0.00384756
C        1.86504756      23.47453239       7.84403768      -0.00060840      -0.00027171      -0.00105528
O        4.79852469      22.84617941       5.88113716      -0.00045157       0.00075566      -0.00139659
H        2.28148583      22.81340200       5.85770087      -0.00008297      -0.00093027      -0.00058336
H        2.30283083      23.81089018       8.78746573      -0.00040571       0.00010621      -0.00118918
C       -2.65839217       7.36647488      23.57462788      -0.01301006      -0.01057233      -0.00450023
C       -4.11511770       7.31007150      23.48966337      -0.02908987      -0.00458287       0.00043267
C       -0.42594203       6.99525348      22.58833031       0.01944041       0.00250867      -0.00010425
O       -4.61201868       6.81103140      22.41456459      -0.01629193      -0.01206729      -0.00524860
C        1.70323785       6.66102440      21.43860147       0.00753649       0.00188724      -0.00044976
H        2.26835392       6.37055070      20.55436004      -0.00104540       0.00036079       0.00112161
C        2.40270881       7.09604708      22.57943841       0.00505456      -0.00043736      -0.00229126
C        3.88601995       7.17306487      22.57153800       0.00004521      -0.00166868      -0.00345737
C        0.32054068       6.60732236      21.44414038       0.01084315       0.00049216      -0.00711398
H       -0.22468665       6.27009813      20.56076916      -0.00378586       0.00024588      -0.00161106
O        4.47071012       6.82571319      21.49030876       0.00197329       0.00178856      -0.00300193
C        1.68164713       7.46446363      23.72608418       0.00881102       0.00031741      -0.00322099
H        2.22513352       7.79277570      24.61068413       0.00624626      -0.00277524      -0.00650033
C        0.29482914       7.41855868      23.73843105       0.01073724       0.00406473       0.00655736
H       -0.25189775       7.71058301      24.63505129      -0.00287360      -0.00040066       0.00330275
O        4.43938892       7.58337839      23.64885714       0.00150777      -0.00492805      -0.00333552
C       -1.87194216       6.96192068      22.56312651       0.00782559      -0.00091444       0.00295238
O       -4.77918309       7.76083207      24.49240804      -0.00639978       0.00826875       0.00809681
H       -2.25917753       7.76891568      24.50225807      -0.01380827       0.00223334       0.00140526
H       -2.32295913       6.58360838      21.64246344       0.00701109      -0.00005105      -0.00736551
C        6.84976086       2.78324846       7.35411527       0.00093751       0.00057611       0.00027565
C        6.94739024       4.24195581       7.27528260       0.00301564       0.00117793      -0.00004343
C        7.80777260       0.52391113       7.02765878       0.00011063       0.00048006       0.00028608
O        8.01520117       4.72402541       6.74951352       0.00347268       0.00021969       0.00005739
C        8.91430594      -1.62396351       6.65600244      -0.00043525       0.00090064       0.00052255
H        9.77087303      -2.20169629       6.31242128      -0.00027178       0.00189208       0.00048430
C        7.79915535      -2.30623803       7.17654371      -0.00011612       0.00081189       0.00004741
C        7.79093256      -3.79142357       7.25278947       0.00044289       0.00083650      -0.00034854
C        8.91831503      -0.24179298       6.58210144      -0.00006280       0.00064016       0.00053068
H        9.78268398       0.28836477       6.17796478      -0.00011768       0.00096634       0.00094242
O        8.82481801      -4.38661321       6.79811143       0.00073141       0.00076552       0.00019889
C        6.69087356      -1.56596216       7.61792354       0.00014159       0.00103277      -0.00010725
H        5.82854690      -2.09642424       8.01864699       0.00064224       0.00054848      -0.00058414
C        6.68667000      -0.17893148       7.54841459      -0.00029541       0.00095963       0.00026005
H        5.81937757       0.38316077       7.89543801      -0.00019242       0.00127250       0.00032052
O        6.75070013      -4.32773227       7.76485441       0.00036130       0.00008440      -0.00121685
C        7.84053372       1.97021970       6.94892390       0.00092866       0.00058320       0.00013020
O        5.95659723       4.91433049       7.73962442       0.00304536       0.00051905      -0.00042153
H        5.92258287       2.40393367       7.77721546      -0.00051514       0.00255918       0.00041140
H        8.75291209       2.39919004       6.52680338       0.00111424       0.00103920      -0.00025876
C       23.59195421      -2.72229987      23.04211392      -0.00042555      -0.00137215      -0.00306957
C       23.48011898      -4.18160454      23.08256887       0.00002060       0.00783958      -0.00102475
C       22.63096161      -0.46756411      23.40444814      -0.00993840      -0.01473112      -0.00434521
O       22.40154659      -4.66229308      23.58958009       0.00722907      -0.00583945      -0.00367478
C       21.49646857       1.66454076      23.78310184       0.00011987       0.00184510       0.00721854
H       20.61710828       2.22625011      24.09331112       0.00630309       0.01380242       0.01314806
C       22.64016512       2.36618848      23.36065641      -0.00281536       0.00495423       0.00810290
C       22.65828875       3.85492582      23.35886602      -0.00393998      -0.00333744      -0.00692715
C       21.49243762       0.28052504      23.80478223      -0.00068915      -0.00070807       0.00195044
H       20.60702123      -0.26801988      24.13156886      -0.00595591       0.01502535       0.00996842
O       21.65387075       4.44203309      23.88471141      -0.01538295      -0.01431747      -0.01941944
C       23.76789976       1.64122706      22.93912880      -0.00535588       0.00014536       0.00627114
H       24.64476219       2.18386242      22.58917144      -0.00331065       0.01075895       0.01299800
C       23.77612519       0.25225623      22.96627752      -0.01389050      -0.00321250       0.00217323
H       24.66272287      -0.29894289      22.65051071      -0.00741911       0.00788707       0.00065489
O       23.68573877       4.39941191      22.83046769       0.01604614      -0.02688712       0.01093992
C       22.59427667      -1.91569564      23.44288642       0.00123760      -0.00633938      -0.00643634
O       24.46450495      -4.85601532      22.60872458      -0.00264625       0.00209522       0.00430810
H       24.52916058      -2.33620047      22.64785687      -0.00490433      -0.00958862      -0.00011305
H       21.66843591      -2.35331871      23.82627410       0.00655585       0.00815677      -0.00512925
C        7.22931148       2.21284147      22.03706040       0.00334576      -0.00212906       0.00044791
C        7.29669645       3.66550154      22.21148393       0.00521026      -0.00247395       0.00103443
C        8.09271117      -0.06191669      22.51508318       0.00243318      -0.00139418       0.00309740
O        8.22284479       4.10565515      22.98510592       0.00595175      -0.00465891       0.00168402
C        9.05973804      -2.21479601      23.14878348       0.00177930      -0.00113771       0.00229282
H        9.80670689      -2.79491779      23.68786610       0.00144663      -0.00154696       0.00189005
C        8.08222145      -2.89291278      22.39806848       0.00167419      -0.00028324       0.00188731
C        8.06183524      -4.38015174      22.36451979       0.00122872       0.00020504       0.00108660
C        9.06651439      -0.83240321      23.20393727       0.00232301      -0.00137590       0.00320495
H        9.82357493      -0.30578836      23.78769431       0.00230524      -0.00155949       0.00344129
O        8.93202665      -4.96899388      23.08956818       0.00124231      -0.00033971       0.00068041
C        7.12286415      -2.14628495      21.69390935       0.00190968      -0.00001166       0.00228960
H        6.37388391      -2.67387741      21.10537266       0.00153559       0.00155149       0.00187671
C        7.11996442      -0.75777101      21.74597300       0.00223470      -0.00036820       0.00291348
H        6.36742530      -0.18845605      21.19915857       0.00288451       0.00097946       0.00358141
O        7.17672118      -4.91841940      21.61921491       0.00099120       0.00077207       0.00093356
C        8.11044075       1.38249948      22.62022028       0.00250986      -0.00150496       0.00237784
O        6.42780304       4.36463043      21.58007416       0.00577753      -0.00105398       0.00173104
H        6.42304070       1.85564870      21.40074800       0.00342951      -0.00455577       0.00142824
H        8.91291816       1.79675572      23.23595431       0.00192200      -0.00194040       0.00335162
C       23.03085194      -2.20292690       8.30602811       0.00406564      -0.00005697       0.00165489
C       22.96493926      -3.66015605       8.16798442      -0.00290274      -0.00283400      -0.00256217
C       22.20229352       0.06880964       7.76403971      -0.00634277       0.00218215      -0.00563893
O       22.01738572      -4.12235594       7.43540029      -0.00221149      -0.00035248      -0.00535146
C       21.27532011       2.23323538       7.10129460       0.00308353       0.00743561      -0.00246113
H       20.53484302       2.82281010       6.56310515      -0.00382915      -0.00963771      -0.00723925
C       22.27398785       2.90527435       7.82859965       0.00485409       0.00352916      -0.00124425
C       22.32022712       4.39427009       7.85396449       0.01897756      -0.00174076       0.01539209
C       21.23900375       0.84907606       7.06993929      -0.00431783       0.00891391      -0.00226048
H       20.46375062       0.33048640       6.50278456       0.00466926      -0.00912460       0.00298685
O       21.47982145       5.01433674       7.12028378       0.01207827      -0.01812649       0.00835987
C       23.22911158       2.14865458       8.53100052      -0.00950525      -0.00321668      -0.00799357
H       24.00151862       2.66170048       9.10262238      -0.02698101       0.02255455      -0.01838005
C       23.20096584       0.75957277       8.50356134      -0.01068927       0.00084303      -0.00712569
H       23.94894681       0.18259284       9.04870351       0.00033061       0.02916248       0.00039413
O       23.20946492       4.90275985       8.61669813       0.01239201       0.00600750       0.01233539
C       22.15757243      -1.37900380       7.70035667       0.00373428       0.00087545       0.00297649
O       23.85897531      -4.34184378       8.78528764      -0.00679897      -0.00617240      -0.00144179
H       23.84140241      -1.83547150       8.93056711       0.00438176       0.00698834       0.00320714
H       21.34512982      -1.80067421       7.10266980       0.00160860       0.01058366       0.00024490
C        7.79604494      22.06970506      17.35092250      -0.00000350       0.00089419      -0.00008078
C        7.81016396      22.18547809      18.80946554       0.00005927       0.00073291       0.00002023
C        7.34783660      23.00774049      15.10500222      -0.00035869       0.00056126      -0.00015966
O        7.33234813      23.26563602      19.31275818      -0.00048521       0.00039019       0.00033911
C        6.87078073      24.09645211      12.96825565       0.00001851       0.00038589      -0.00018184
H        6.50114351      24.94888088      12.40065591       0.00024379       0.00025771      -0.00033501
C        7.35958128      22.97635958      12.27117246      -0.00003993       0.00045218      -0.00012184
C        7.39159389      22.96339517      10.78447363       0.00007341       0.00032660       0.00002606
C        6.86462006      24.11171585      14.35254786      -0.00019645       0.00055740      -0.00023017
H        6.48849805      24.98102263      14.89515663      -0.00020527       0.00068752      -0.00043305
O        6.90780386      23.98822880      10.19487667       0.00030051       0.00040450      -0.00015769
C        7.83001967      21.87140319      12.99866345      -0.00025852       0.00049594      -0.00000428
H        8.20402743      21.00410060      12.45692263      -0.00025439       0.00044558       0.00024136
C        7.82701249      21.87777826      14.38714118      -0.00037522       0.00044193      -0.00003707
H        8.19807846      21.01347878      14.93835183      -0.00053269       0.00043695       0.00012057
O        7.90404791      21.92832822      10.23978562      -0.00007949       0.00006004       0.00032137
C        7.35123011      23.05572715      16.55286356      -0.00046408       0.00075287      -0.00010712
O        8.30076762      21.19406717      19.46436003       0.00069998       0.00077710      -0.00032714
H        8.18353447      21.13236351      16.95872326       0.00040361       0.00092454       0.00001614
H        6.96082426      23.97538053      16.99602267      -0.00076407       0.00069001      -0.00002817
C       23.03688626       7.20045740      18.16187282      -0.00062898       0.00285049       0.00022260
C       22.95208536       7.29321885      19.62106091       0.00256418       0.00428971       0.00149139
C       22.64275556       8.13906084      15.90296687       0.00144870      -0.00264489      -0.00281775
O       22.41958440       8.35804111      20.10206788       0.00059281      -0.00154825       0.01259205
C       22.15308000       9.20853503      13.75953148       0.00028761      -0.00248075       0.01043743
H       21.77725722      10.05584751      13.18763843       0.00236905      -0.00986425       0.00714589
C       22.62335708       8.07595616      13.07012812       0.00121419       0.00486095       0.00180447
C       22.57557927       8.03213208      11.58592115      -0.00063431      -0.00519995      -0.00305488
C       22.16260424       9.23861450      15.14299396      -0.00357430       0.00634587       0.00937660
H       21.79303169      10.11409515      15.67909461      -0.00552185       0.01318402       0.00660263
O       23.07837822       7.00026796      11.02524260       0.00251053      -0.00206528      -0.00084744
C       23.12006934       6.98573502      13.80276322      -0.00315505       0.00753823       0.00422900
H       23.49374298       6.11471244      13.26606194      -0.00615086       0.01367371       0.00195787
C       23.13305253       7.00992399      15.19155224       0.00247924      -0.00911464       0.00370548
H       23.51620217       6.15612892      15.75026945       0.00525293      -0.01232499       0.00596203
O       22.02917878       9.03393559      11.00978372      -0.00252561      -0.01025409      -0.00951232
C       22.61454235       8.18633013      17.35138174       0.00146361      -0.00323508      -0.00576439
O       23.41329611       6.30154676      20.29371781       0.00465102      -0.00340697      -0.00586410
H       23.47040887       6.27911414      17.77998833      -0.00047196       0.00102652       0.00105522
H       22.20799203       9.10437118      17.78398643       0.00241333      -0.00486313      -0.00072989
C       22.59332028      22.55043057      12.77485487       0.00077897       0.00154085      -0.00129241