520
Lattice="30.376347663940155 0.0 0.0 0.0 30.376347663940155 0.0 0.0 0.0 30.376347663940155" Properties=species:S:1:pos:R:3 energy=-3497.3412454083377 pbc="T T T"
C        7.50362674       6.90007649      -2.80595574
C        7.47839931       7.01907586      -4.26446234
C        7.04858797       7.81071693      -0.54899564
O        6.98755630       8.10422075      -4.74637621
C        6.59301644       8.88733528       1.59813116
H        6.24492502       9.74295883       2.17442207
C        7.05004410       7.74698235       2.28363246
C        7.08017626       7.72066181       3.76969991
C        6.59091755       8.91807754       0.21434673
H        6.23855596       9.80302751      -0.31872123
O        6.62225719       8.75343379       4.36473474
C        7.49085853       6.63699034       1.54548914
H        7.83767476       5.75377660       2.07954865
C        7.49258234       6.65910425       0.15712057
H        7.83795233       5.78993021      -0.40318012
O        7.56462347       6.66798240       4.30776145
C        7.05734477       7.87598799      -1.99616783
O        7.94529536       6.03031447      -4.93727353
H        7.91696468       5.96951538      -2.42429136
H        6.67030498       8.80235077      -2.42845626
C       22.84117579      23.48050375       2.79154857
C       22.92789954      23.38475995       4.24820839
C       23.18072667      22.52142978       0.53585118
O       23.44077931      22.30809733       4.72587381
C       23.57444643      21.41996407      -1.60926329
H       23.90977896      20.56147689      -2.18875129
C       23.10327922      22.55428917      -2.29403135
C       23.07712494      22.57342769      -3.77848278
C       23.61329063      21.40265042      -0.22618254
H       23.98097357      20.52259394       0.30530604
O       22.59247587      23.62147670      -4.32647524
C       22.67172101      23.66924215      -1.55753446
H       22.31081920      24.54748075      -2.09029580
C       22.70301512      23.66033185      -0.16944239
H       22.36293516      24.53150615       0.39180476
O       23.54528378      21.54057281      -4.36758950
C       23.23676459      22.48280149       1.98215665
O       22.48659394      24.38273270       4.92468182
H       22.42336526      24.41024734       2.41310161
H       23.63558203      21.56015736       2.41161687
C       22.62604925       8.18847793       3.01787216
C       22.52500348       8.08780375       4.47528473
C       22.10496132       7.38623210       0.73824794
O       21.82275539       7.12111712       4.94267998
C       21.52927488       6.44506198      -1.44359972
H       21.02237356       5.69616284      -2.04940921
C       22.27132343       7.44975275      -2.09062381
C       22.38390416       7.47494645      -3.57287671
C       21.44982713       6.41194517      -0.06172745
H       20.87865194       5.62909531       0.44083769
O       21.71515347       6.59568583      -4.21217872
C       22.91581359       8.42702709      -1.31671636
H       23.48507900       9.20693873      -1.81966500
C       22.83636691       8.40606575       0.06911934
H       23.33993902       9.17569091       0.65444468
O       23.14310764       8.37671244      -4.06726419
C       22.02316755       7.32358595       2.18357845
O       23.14770674       8.98141333       5.15270449
H       23.23171648       9.01674481       2.65733627
H       21.42677693       6.50227938       2.58937119
C        8.27691172      23.02863893       2.09826827
C        8.10964610      22.95525197       3.55170961
C        7.75434374      22.22785248      -0.18612221
O        7.33182430      22.03429677       3.99327086
C        7.10955051      21.31865164      -2.36086994
H        6.56265469      20.59251156      -2.96002851
C        7.87800030      22.29911978      -3.01489372
C        7.92606788      22.34840714      -4.49993667
C        7.04913399      21.28342122      -0.97888727
H        6.45077796      20.52499663      -0.47083039
O        7.21571862      21.48305514      -5.11229873
C        8.58984264      23.23484647      -2.24709267
H        9.18755409      23.98880549      -2.75677772
C        8.53479930      23.20708670      -0.85981475
H        9.08915629      23.94153996      -0.27504883
O        8.66892423      23.25108406      -5.01242735
C        7.65911398      22.18015637       1.25845320
O        8.75123925      23.81834983       4.24939717
H        8.93499290      23.81969047       1.74655363
H        7.02575199      21.38595200       1.66183931
C       -2.92445193       7.72133242       8.29212292
C       -4.38471520       7.80977566       8.22688187
C       -0.67292546       8.25839160       7.41521292
O       -4.87737773       8.52175568       7.27928793
C        1.47293962       8.83243567       6.39145335
H        2.04888977       9.31431025       5.60304809
C        2.15914512       8.14682334       7.41045091
C        3.64293825       8.05616856       7.40239703
C        0.08930178       8.88729268       6.39394518
H       -0.44510969       9.41609187       5.60246856
O        4.25313648       8.67718479       6.46904477
C        1.42242930       7.53015550       8.43420092
H        1.95531419       7.00380408       9.22441438
C        0.03522263       7.58043316       8.44468105
H       -0.52182736       7.09568475       9.24650749
O        4.16435218       7.35742553       8.33670708
C       -2.12093016       8.31317760       7.39089735
O       -5.04127493       7.16912649       9.12412700
H       -2.53567010       7.13099840       9.11861203
H       -2.55847938       8.88044513       6.56550751
C       -2.21719222      22.24258208      23.13125219
C       -3.66468162      22.46167707      23.14205455
C        0.04246677      22.69985765      22.23038800
O       -4.13836545      23.25851150      22.25504983
C        2.20085939      23.33694130      21.27782249
H        2.78560221      23.88772861      20.54308100
C        2.87464501      22.57094740      22.24681126
C        4.36143168      22.52773099      22.26642037
C        0.81787702      23.39217838      21.26223502
H        0.29723709      23.98199162      20.50538721
O        4.95143067      23.28779583      21.42732799
C        2.12283296      21.85709765      23.19415058
H        2.64352888      21.25721777      23.93861711
C        0.73500947      21.91385366      23.19202489
H        0.16247218      21.35976186      23.93635414
O        4.89874463      21.74085488      23.11587485
C       -1.40082180      22.82428019      22.23575865
O       -4.32960849      21.83981592      24.04675571
H       -1.84726162      21.56584315      23.89747343
H       -1.82465036      23.45379114      21.45008191
C        2.62468371      22.88809895       6.74132386
C        4.08429716      22.96622376       6.81499713
C        0.38783256      23.24547940       7.74527677
O        4.57581687      23.49317453       7.87912847
C       -1.72762810      23.61565832       8.91258808
H       -2.28099598      23.92435493       9.79801252
C       -2.44323023      23.17922085       7.78317481
C       -3.92889115      23.13543426       7.80348450
C       -0.34436585      23.65030752       8.89356013
H        0.21228356      23.98993924       9.76890774
O       -4.49675985      23.52954876       8.87767578
C       -1.73658492      22.78016245       6.63713233
H       -2.29470961      22.44428740       5.76450746
C       -0.34842567      22.80845816       6.61016901
H        0.18910942      22.49594505       5.71441844
O       -4.49647450      22.70551808       6.74260332
C        1.83581334      23.28527963       7.75474313
O        4.74980546      22.50678547       5.81782930
H        2.22509439      22.47268603       5.81941870
H        2.28804319      23.66991303       8.67251102
C       -2.56402446       7.29261961      23.59231162
C       -4.02271917       7.16077070      23.53492294
C       -0.31638530       7.09956570      22.56757376
O       -4.53111642       6.62777564      22.48328505
C        1.81668693       6.81193545      21.40518041
H        2.38210151       6.51343477      20.52346540
C        2.51368454       7.28866694      22.53082202
C        3.99981756       7.37106899      22.51801705
C        0.43514210       6.72092221      21.42259553
H       -0.10523828       6.35014676      20.54931404
O        4.58259247       6.95402740      21.46026334
C        1.78703712       7.67688744      23.66848948
H        2.32994384       8.04852420      24.53652726
C        0.40003133       7.58948846      23.69470443
H       -0.15190150       7.89505134      24.58451565
O        4.55406662       7.84981389      23.56522182
C       -1.76089854       6.97559899      22.56224797
O       -4.67758256       7.59583400      24.55267030
H       -2.17527901       7.69122841      24.52702277
H       -2.19614822       6.58948017      21.63693353
C        6.82272620       2.63896871       7.32012433
C        6.91357842       4.09654872       7.24308763
C        7.78756975       0.38838881       6.96597609
O        7.97677896       4.58281660       6.71082986
C        8.90454379      -1.75272075       6.58815607
H        9.77562177      -2.32479962       6.27290765
C        7.76162021      -2.44356191       7.03083827
C        7.74273860      -3.92971420       7.06739631
C        8.91662668      -0.36906787       6.55416382
H        9.80131157       0.16913759       6.20883491
O        8.80409402      -4.52292143       6.67738447
C        6.63602188      -1.71100729       7.44023112
H        5.75292849      -2.24841707       7.78216545
C        6.64072879      -0.32290090       7.41363378
H        5.75991741       0.23335205       7.73513054
O        6.66366359      -4.47181865       7.48602988
C        7.82416529       1.83548698       6.92220221
O        5.92388286       4.76830641       7.71237379
H        5.89597142       2.25373991       7.73848900
H        8.74756793       2.27313345       6.53428556
C       22.26206603       2.48336913      23.43817156
C       22.38712972       3.93808073      23.32035963
C       23.24168465       0.21451519      23.17046110
O       23.51115743       4.37526814      22.87598651
C       24.35064941      -1.91143908      22.70049929
H       25.21103719      -2.46835629      22.33097563
C       23.21623278      -2.61603860      23.14461679
C       23.20024424      -4.10201374      23.12049996
C       24.36933683      -0.52854089      22.72983517
H       25.25692865       0.01567790      22.40002003
O       24.20402669      -4.67023201      22.57055265
C       22.10206560      -1.89894051      23.61344497
H       21.23215252      -2.45464884      23.96372093
C       22.10426725      -0.50806581      23.62475106
H       21.23741916       0.05139257      23.98005708
O       22.18559362      -4.66727824      23.65502919
C       23.28143471       1.66163240      23.13644771
O       21.37432917       4.64533642      23.67005953
H       21.29708386       2.12036416      23.78164604
H       24.23454805       2.09242088      22.82093795
C        7.35196577       2.31517090      22.04648706
C        7.44754297       3.77158953      22.17373717
C        8.17854949       0.03350830      22.54683753
O        8.43010574       4.22670382      22.86374189
C        9.11561997      -2.13813071      23.16654947
H        9.86479652      -2.73325913      23.68623130
C        8.10489318      -2.79829565      22.44358980
C        8.06092120      -4.28411155      22.39484915
C        9.15297255      -0.75529045      23.21532512
H        9.93739449      -0.24328341      23.77569899
O        8.93296641      -4.89505163      23.09782728
C        7.13622581      -2.03476476      21.77275660
H        6.35723569      -2.54845046      21.21175919
C        7.16342314      -0.64689030      21.81995487
H        6.40236671      -0.06683411      21.29746479
O        7.15572775      -4.79985449      21.65612115
C        8.23474446       1.47968583      22.62115349
O        6.53970426       4.46170025      21.58615882
H        6.51164476       1.95758094      21.45602560
H        9.06739879       1.88912824      23.19903235
C       23.01483196      -2.28104850       8.36616520
C       22.94199926      -3.73715727       8.23217652
C       22.19121325      -0.01334668       7.80962234
O       21.99833927      -4.19275242       7.49066659
C       21.27750320       2.14716864       7.12211012
H       20.55044258       2.73412464       6.56330212
C       22.25638476       2.81813998       7.87839669
C       22.29895355       4.30394861       7.91624622
C       21.24364855       0.76367890       7.09075406
H       20.48447454       0.24093897       6.50584379
O       21.43938392       4.91573687       7.19854298
C       23.19585147       2.06531602       8.60092883
H       23.95082879       2.58632089       9.18732688
C       23.17053511       0.67747045       8.57397477
H       23.90620354       0.10571373       9.14003685
O       23.19477847       4.82112512       8.66569817
C       22.14963278      -1.45983830       7.74599249
O       23.82414846      -4.42257927       8.86107314
H       23.82046977      -1.91307745       8.99672832
H       21.34758856      -1.88170157       7.13487552
C        7.27343083      23.10526357      12.14657678
C        7.35134045      22.99429891      10.68859255
C        7.66561236      22.19832649      14.41594381
O        7.84682675      21.90983920      10.21217391
C        8.18077058      21.17277406      16.57327216
H        8.56212457      20.33749871      17.15846102
C        7.72948178      22.32399396      17.24437000
C        7.79947334      22.40238975      18.72600441
C        8.14540652      21.10933065      15.19143216
H        8.49529231      20.21667723      14.66969472
O        8.38073928      21.42574505      19.31228522
C        7.23104509      23.40169826      16.49585458
H        6.87381019      24.28663031      17.02008025
C        7.19618469      23.34817958      15.10858743
H        6.81146232      24.19365006      14.53776473
O        7.28041464      23.43187129      19.27613104
C        7.67724291      22.12222541      12.96946962
O        6.92106951      23.99767029      10.01266880
H        6.86532633      24.04291667      12.51669563
H        8.05683698      21.18745661      12.54894205
C       23.05226734       7.16304483      18.20679513
C       23.04920589       7.29555944      19.66529263
C       22.52261919       8.04277542      15.95313795
O       22.58976658       8.39712116      20.13808500
C       21.92449659       9.07289565      13.81918260
H       21.51288556       9.90656936      13.25360822
C       22.39216403       7.94383844      13.12349682
C       22.33534720       7.89830285      11.63877146
C       21.98917584       9.12185562      15.20045598
H       21.62795112       9.99890508      15.74011820
O       22.84825440       6.87051430      11.07973176
C       22.91984368       6.86533803      13.85175626
H       23.28103212       5.99210303      13.31131247
C       22.98701791       6.90450447      15.23849590
H       23.39900156       6.05908117      15.79023348
O       21.77976738       8.89382810      11.06008127
C       22.57677770       8.12503207      17.39812298
O       23.49872239       6.29976633      20.33720126
H       23.45672320       6.23001005      17.82337327
H       22.19091342       9.05032543      17.83362807
C       22.61444283      22.46925525      12.84856882
C       22.69749066      22.64082858      11.39549490
C       23.25267221      23.15146493      15.14647766
O       23.47552352      23.57164194      10.97621810
C       23.97572219      23.97973399      17.33089908
H       24.53429159      24.68949783      17.93859525
C       23.24331269      22.96543999      17.97415259
C       23.23530418      22.86111974      19.45643913
C       23.98375828      24.06818723      15.94970771
H       24.55729294      24.85102114      15.44976189
O       23.95127540      23.71029332      20.08566976
C       22.51438906      22.05235360      17.19659397
H       21.94594883      21.27258900      17.70009782
C       22.51247494      22.13553410      15.81049222
H       21.94215728      21.41693413      15.22137739
O       22.51185549      21.93188009      19.95129602
C       23.27837302      23.26773026      13.70231501
O       21.98847823      21.84902213      10.67885532
H       21.97360876      21.65862719      13.18788243
H       23.89658071      24.07972704      13.31116597
C        7.88792559       7.83926159      17.52176254
C        7.78657333       7.70161973      18.97648986
C        7.28594882       7.10994602      15.23125043
O        7.03284498       6.75679228      19.40904839
C        6.54625813       6.28146578      13.05363296
H        5.96805987       5.58167891      12.45244401
C        7.29763521       7.27718289      12.40314204
C        7.28315109       7.38403152      10.92045668
C        6.54087273       6.19937207      14.43510571
H        5.95517567       5.42950475      14.94073217
O        6.52928567       6.55812248      10.30297432
C        8.05130124       8.17719157      13.17340911
H        8.63744241       8.94147910      12.66569645
C        8.05158692       8.10237920      14.56017425
H        8.63914667       8.80920522      15.14662695
O        8.02102932       8.29156608      10.40959477
C        7.24491689       7.01507826      16.67641298
O        8.45556537       8.53494817      19.68543896
H        8.51917102       8.65361374      17.17408130
H        6.63024757       6.20437957      17.07607072
C        8.32130219      17.49342954      22.33767021
C        8.18963014      18.95002545      22.34180551
C        7.42763554      15.23406671      22.80235489
O        7.10655280      19.43720115      22.82988866
C        6.40132008      13.08019506      23.33660489
H        5.57430093      12.49955859      23.74182865
C        7.51944353      12.40104063      22.81878729
C        7.56667051      10.91462507      22.80919013
C        6.35585719      14.46384009      23.32742235
H        5.48819270      14.99278768      23.72598765
O        6.58080917      10.30724094      23.34897125
C        8.58968215      13.14679375      22.29855536
H        9.45467271      12.62070237      21.89779335
C        8.55323770      14.53477238      22.28709507
H        9.39060907      15.10029720      21.87785526
O        8.59102344      10.38754399      22.25787447
C        7.35507220      16.68064405      22.79865685
O        9.17392185      19.61897871      21.85584453
H        9.25629025      17.11657425      21.92974105
H        6.43696808      17.11048693      23.20713844
C       23.11495063      18.04860021       7.51399775
C       23.00010717      19.50715496       7.55896737
C       22.21968155      15.79142336       7.99188338
O       21.93851396      19.98762788       8.09716207
C       21.16889171      13.64561451       8.50420702
H       20.32197215      13.06994882       8.87383331
C       22.31510005      12.96146018       8.05990955
C       22.36759988      11.47668544       8.10189702
C       21.12274583      15.02840238       8.47299355
H       20.23565576      15.56124610       8.82047977
O       23.42498882      10.92705896       7.64149590
C       23.40827460      13.69979659       7.57836740
H       24.29251429      13.16723234       7.23180085
C       23.37023886      15.08746605       7.54185448
H       24.22702408      15.64997841       7.16963714
O       21.34680860      10.88724152       8.59725069
C       22.14743580      17.23754348       7.97468194
O       23.97501136      20.17544566       7.05873653
H       24.03421522      17.66936240       7.07372736
H       21.22542684      17.66902344       8.37258752
C        7.74861704      12.68724061       7.58985433
C        7.58212928      11.23440436       7.50738398
C        7.05396277      14.98760682       6.99415217
O        6.60504629      10.80897036       6.79259357
C        6.25332930      17.18370450       6.27850214
H        5.56027708      17.79996917       5.70812137
C        7.25789792      17.81361472       7.03595532
C        7.37101459      19.29669385       7.05852040
C        6.15135554      15.80329080       6.26079315
H        5.37062586      15.31306846       5.67624044
O        6.58734343      19.93571367       6.27950604
C        8.15577311      17.02293789       7.77082678
H        8.93039098      17.51273982       8.35865799
C        8.06469001      15.63742322       7.75405794
H        8.77055766      15.03599110       8.32728797
O        8.24204420      19.78266787       7.85528167
C        6.93206769      13.54452942       6.95306544
O        8.42875902      10.52245548       8.15551437
H        8.58313101      13.02278889       8.20107514
H        6.10770762      13.15797398       6.34842700
C       23.48216096      12.46382687      23.30338689
C       23.30598671      11.01327336      23.23195338
C       22.71465087      14.75601064      22.76836834
O       22.33837339      10.58789379      22.50410637
C       21.80119005      16.93292170      22.13647151
H       21.05147027      17.53299085      21.62480472
C       22.83674456      17.58569461      22.82861067
C       22.90811482      19.07034079      22.86893897
C       21.73968895      15.55068383      22.10930518
H       20.93460050      15.03991659      21.57734385
O       22.03146652      19.71181067      22.19648397
C       23.80792776      16.81416334      23.48780385
H       24.60860760      17.32045686      24.02388561
C       23.75746786      15.42656267      23.46419880
H       24.51819966      14.84108860      23.98210085
O       23.84986693      19.56079081      23.57869490
C       22.62110253      13.31248706      22.71778573
O       24.13290565      10.29788684      23.90404002
H       24.34298897      12.80438809      23.87361470
H       21.77418518      12.91675565      22.15138394
C       17.80462352       7.91320454      22.52548261
C       19.24732877       7.90415241      22.78592536
C       15.49210923       7.29157626      23.17958649
O       19.62714822       7.29060332      23.84909914
C       13.30079852       6.54008781      23.96425840
H       12.68794534       5.96831022      24.65972695
C       12.66713885       7.27833908      22.94793038
C       11.18398126       7.27210436      22.82183437
C       14.68071222       6.54316892      24.07415570
H       15.17389984       5.96685406      24.85923234
O       10.54526264       6.51287102      23.62630350
C       13.45426544       8.01868248      22.04998698
H       12.96055519       8.59281043      21.26709644
C       14.84016694       8.02601460      22.15179318
H       15.43959947       8.60453644      21.44771383
O       10.69241314       8.02769303      21.91737509
C       16.93194896       7.29795213      23.34222363
O       20.00071293       8.50213219      21.93949293
H       17.49051466       8.42528621      21.61880209
H       17.30333536       6.74368362      24.20842984
C       12.67018753      22.54256067       7.80214349
C       11.22142438      22.64849149       7.61087486
C       14.98683610      23.13825594       7.15142050
O       10.83035700      23.39988523       6.64655841
C       17.19150807      23.87104894       6.39272718
H       17.81573589      24.45510689       5.71840209
C       17.80883495      23.09737589       7.39267504
C       19.28959872      23.09056307       7.53004714
C       15.81300942      23.88949137       6.27338465
H       15.33315257      24.48976635       5.49823426
O       19.77575051      22.31001848       8.41534094
C       17.00838504      22.34010944       8.26276757
H       17.49078347      21.73805486       9.03109656
C       15.62387553      22.35554238       8.15282640
H       15.01261430      21.76612585       8.83681478
O       19.92760373      23.87095647       6.74679522
C       13.54558955      23.18894746       7.01288542
O       10.47848783      21.98690578       8.41944585
H       12.98740809      21.90769861       8.62593423
H       13.17588619      23.81424571       6.19616626
C       12.99980460      22.63978471      22.05054402
C       11.54029584      22.66732330      22.14227179
C       15.24423764      23.00260071      23.02400659
O       11.02841095      23.11219005      23.23216446
C       17.38650631      23.44164308      24.11815506
H       17.95784404      23.82234138      24.96320929
C       18.07714493      22.89330777      23.02103612
C       19.56087775      22.81184295      23.02178364
C       16.00278494      23.49137401      24.12181723
H       15.46592755      23.90938152      24.97581360
O       20.15436782      23.30816770      24.03856497
C       17.34440712      22.41872818      21.92250025
H       17.88310657      22.00416685      21.07223850
C       15.95683530      22.46889259      21.91500852
H       15.40190571      22.09082038      21.05611973
O       20.10216983      22.25127999      22.00854349
C       13.79630575      23.04673382      23.05423688
O       10.89040698      22.24229423      21.11671707
H       13.39331252      22.26246188      21.10926720
H       13.35352652      23.44331006      23.97161535
C       12.24804191       7.33038046       7.09210519
C       10.78851014       7.39991151       7.18336458
C       14.49466259       7.79352365       8.03137606
O       10.30805854       7.94853899       8.24002335
C       16.61677031       8.34901633       9.10813565
H       17.17327123       8.76842309       9.94463809
C       17.32699712       7.82387316       8.01330025
C       18.81311267       7.85475530       8.00158631
C       15.23331860       8.33433623       9.11729000
H       14.68173845       8.74399129       9.96541523
O       19.37200035       8.41954234       9.00298563
C       16.61343393       7.27773833       6.93383758
H       17.16667004       6.86775912       6.09034530
C       15.22442592       7.25865682       6.93451027
H       14.68019306       6.83415174       6.09021291
O       19.38962072       7.31720287       6.99730101
C       13.04668360       7.80478317       8.06358207
O       10.11809377       6.91235659       6.20332261
H       12.63890850       6.87011268       6.18794180
H       12.60169603       8.24423854       8.96009033
Zn       6.19256060       8.96472356       6.27177004
O        7.21148905       7.66672420       7.34197949
Zn       8.20978711       6.45222429       6.15081861
Zn       5.96583753       6.59705434       8.42501381
Zn       8.47753922       8.59772760       8.52364160
Zn       6.80164165      21.30943705      23.35337359
O        7.94757169      22.51810389      22.30825935
Zn       9.12684000      23.56552193      23.48387010
Zn       6.85369066      23.69822432      21.18200104
Zn       9.10421087      21.43661142      21.13181962
Zn      24.02464558      22.07667778       6.58526184
O       22.86106165      23.07269680       7.82803147
Zn      21.82434975      24.37196132       6.77600597
Zn      23.98830973      24.01493919       9.13740668
Zn      21.65076049      21.82204901       8.74470848
Zn      23.92890394       8.44845247      24.51480242
O       22.79601219       7.47839001      23.22900392
Zn      21.39077833       6.52598030      24.22122977
Zn      23.93167679       6.19560472      22.24956946
Zn      21.95895272       8.73726808      21.96844975
Zn      21.28941766       6.83764255       6.81051920
O       22.39759761       7.88931943       8.05131533
Zn      23.62756776       9.05941526       7.05126065
Zn      23.43542597       6.68660281       9.21179199
Zn      21.23357164       9.01257302       9.17583188
Zn       8.63510649       6.03438671      23.59803919
O        7.59149712       7.34002501      22.55296800
Zn       6.44003038       8.38827898      23.76480353
Zn       6.45864067       6.39560139      21.24757855
Zn       8.82492875       8.54736652      21.61195411
Zn       9.00832073      23.95574625       6.19155711
O        7.65986890      22.86125935       7.11674162
Zn       6.60407971      21.84346622       5.80310750
Zn       6.44222748      24.05414682       8.10965900
Zn       8.54329857      21.64751499       8.38955844
Zn      22.04433719      23.82663826      24.17298790
O       23.13773981      22.67852271      23.01412087
Zn      24.14057265      21.41507256      24.14169635
Zn      24.37708439      23.82573084      21.99984090
Zn      21.96516924      21.64575278      21.81392527
