520
Lattice="30.376347663940155 0.0 0.0 0.0 30.376347663940155 0.0 0.0 0.0 30.376347663940155" Properties=species:S:1:pos:R:3:forces:R:3 energy=-3497.3412454083373 stress="4.475611855003954e-05 8.311023056946535e-06 -1.2517370013876493e-05 8.311023056946535e-06 -3.662168098540026e-05 2.6976618857788143e-06 -1.2517370013876493e-05 2.6976618857788143e-06 -4.269522157141913e-05" pbc="T T T"
C        7.50362674       6.90007649      -2.80595574      -0.00189099      -0.00063984       0.00045437
C        7.47839931       7.01907586      -4.26446234      -0.00240202       0.00286047       0.00116092
C        7.04858797       7.81071693      -0.54899564       0.00013820      -0.00000442       0.00001240
O        6.98755630       8.10422075      -4.74637621      -0.00929331      -0.00131358      -0.00009232
C        6.59301644       8.88733528       1.59813116       0.00007213       0.00093577      -0.00132557
H        6.24492502       9.74295883       2.17442207      -0.00052131       0.00144125      -0.00200868
C        7.05004410       7.74698235       2.28363246       0.00041777       0.00020310      -0.00177401
C        7.08017626       7.72066181       3.76969991       0.00006143      -0.00004376      -0.00200112
C        6.59091755       8.91807754       0.21434673       0.00031160       0.00077652      -0.00127312
H        6.23855596       9.80302751      -0.31872123       0.00105871       0.00015829      -0.00304374
O        6.62225719       8.75343379       4.36473474       0.00083459       0.00030120      -0.00199312
C        7.49085853       6.63699034       1.54548914       0.00097301      -0.00032238      -0.00099607
H        7.83767476       5.75377660       2.07954865       0.00137959      -0.00141020      -0.00275350
C        7.49258234       6.65910425       0.15712057       0.00079814       0.00030639      -0.00079185
H        7.83795233       5.78993021      -0.40318012       0.00092236       0.00207509      -0.00319359
O        7.56462347       6.66798240       4.30776145      -0.00137292      -0.00009526      -0.00085327
C        7.05734477       7.87598799      -1.99616783      -0.00025646      -0.00084399       0.00061092
O        7.94529536       6.03031447      -4.93727353       0.00544800       0.00542037       0.00266346
H        7.91696468       5.96951538      -2.42429136      -0.00323143      -0.00081493       0.00100282
H        6.67030498       8.80235077      -2.42845626       0.00077375      -0.00119900       0.00027745
C       22.84117579      23.48050375       2.79154857      -0.00241416      -0.00409873      -0.01075764
C       22.92789954      23.38475995       4.24820839      -0.00203396       0.00188657      -0.00722942
C       23.18072667      22.52142978       0.53585118       0.00183856      -0.00173857      -0.00399391
O       23.44077931      22.30809733       4.72587381      -0.00511516       0.00299274      -0.00140800
C       23.57444643      21.41996407      -1.60926329       0.00255530      -0.00426248       0.00303638
H       23.90977896      20.56147689      -2.18875129       0.00288555      -0.01513522       0.01721806
C       23.10327922      22.55428917      -2.29403135       0.00490888       0.00340637       0.00936777
C       23.07712494      22.57342769      -3.77848278      -0.00313166       0.01620838       0.00696475
C       23.61329063      21.40265042      -0.22618254      -0.00180229       0.00539269      -0.00076445
H       23.98097357      20.52259394       0.30530604      -0.00700890       0.01515018       0.00447485
O       22.59247587      23.62147670      -4.32647524       0.00513540       0.00046777      -0.01824177
C       22.67172101      23.66924215      -1.55753446      -0.00116005       0.00249310       0.00323935
H       22.31081920      24.54748075      -2.09029580      -0.00437334      -0.00499363      -0.00887928
C       22.70301512      23.66033185      -0.16944239       0.00382259      -0.00633926      -0.00097200
H       22.36293516      24.53150615       0.39180476       0.00543558      -0.01077414      -0.00762514
O       23.54528378      21.54057281      -4.36758950      -0.00332672       0.02894553      -0.01055188
C       23.23676459      22.48280149       1.98215665       0.00021949      -0.00352868      -0.00760565
O       22.48659394      24.38273270       4.92468182       0.00888159      -0.00485571       0.00888491
H       22.42336526      24.41024734       2.41310161       0.00307922      -0.00185700      -0.00915686
H       23.63558203      21.56015736       2.41161687      -0.00386537       0.00598526       0.01190886
C       22.62604925       8.18847793       3.01787216       0.00066838      -0.00154514       0.00165435
C       22.52500348       8.08780375       4.47528473      -0.00136279       0.00150568       0.00427098
C       22.10496132       7.38623210       0.73824794       0.00169816       0.00091364      -0.00563456
O       21.82275539       7.12111712       4.94267998      -0.00413334      -0.00042529      -0.00085968
C       21.52927488       6.44506198      -1.44359972      -0.00277622      -0.00070002      -0.00627032
H       21.02237356       5.69616284      -2.04940921      -0.00383512      -0.01381681      -0.00049505
C       22.27132343       7.44975275      -2.09062381       0.00367652       0.00439163      -0.00209939
C       22.38390416       7.47494645      -3.57287671      -0.00098446       0.00356829      -0.01264301
C       21.44982713       6.41194517      -0.06172745      -0.00272391       0.00227624      -0.00364502
H       20.87865194       5.62909531       0.44083769       0.00260071       0.00215293       0.00410308
O       21.71515347       6.59568583      -4.21217872      -0.00977503      -0.00446074      -0.00538282
C       22.91581359       8.42702709      -1.31671636       0.00182983       0.00805397       0.00413634
H       23.48507900       9.20693873      -1.81966500       0.00422961       0.00268154      -0.00096761
C       22.83636691       8.40606575       0.06911934      -0.00189620      -0.00001079       0.00212837
H       23.33993902       9.17569091       0.65444468       0.00022745      -0.00794603       0.00027605
O       23.14310764       8.37671244      -4.06726419       0.00798309       0.01312820       0.01934606
C       22.02316755       7.32358595       2.18357845       0.00498086       0.00252712      -0.00577054
O       23.14770674       8.98141333       5.15270449       0.00495804       0.00870641      -0.00926379
H       23.23171648       9.01674481       2.65733627      -0.00271540       0.00217539       0.00227524
H       21.42677693       6.50227938       2.58937119       0.00565188       0.00860235       0.00351674
C        8.27691172      23.02863893       2.09826827      -0.00007283       0.00007299       0.00157108
C        8.10964610      22.95525197       3.55170961       0.00023036       0.00072014       0.00125714
C        7.75434374      22.22785248      -0.18612221       0.00019603      -0.00002030       0.00233568
O        7.33182430      22.03429677       3.99327086      -0.00042902       0.00125824       0.00086264
C        7.10955051      21.31865164      -2.36086994      -0.00041550      -0.00001193       0.00228791
H        6.56265469      20.59251156      -2.96002851      -0.00073516      -0.00095770       0.00414176
C        7.87800030      22.29911978      -3.01489372      -0.00166049      -0.00067745       0.00019894
C        7.92606788      22.34840714      -4.49993667      -0.00207898      -0.00190532      -0.00075998
C        7.04913399      21.28342122      -0.97888727       0.00046404       0.00026736       0.00247986
H        6.45077796      20.52499663      -0.47083039       0.00124560       0.00056373       0.00373771
O        7.21571862      21.48305514      -5.11229873      -0.00000829      -0.00121552      -0.00304789
C        8.58984264      23.23484647      -2.24709267      -0.00113201      -0.00106093       0.00084965
H        9.18755409      23.98880549      -2.75677772      -0.00031987      -0.00067335       0.00257396
C        8.53479930      23.20708670      -0.85981475      -0.00020923      -0.00054345       0.00116864
H        9.08915629      23.94153996      -0.27504883       0.00000893      -0.00084880       0.00152800
O        8.66892423      23.25108406      -5.01242735      -0.00296526      -0.00135557      -0.00048968
C        7.65911398      22.18015637       1.25845320      -0.00025018      -0.00036042       0.00235491
O        8.75123925      23.81834983       4.24939717       0.00038014      -0.00005029       0.00172421
H        8.93499290      23.81969047       1.74655363      -0.00026461      -0.00023831       0.00127243
H        7.02575199      21.38595200       1.66183931      -0.00042682      -0.00008416       0.00283661
C       -2.92445193       7.72133242       8.29212292      -0.00112395      -0.00001573       0.00034361
C       -4.38471520       7.80977566       8.22688187       0.00026934      -0.00069385       0.00084053
C       -0.67292546       8.25839160       7.41521292      -0.00168942      -0.00009965       0.00097045
O       -4.87737773       8.52175568       7.27928793       0.00207713      -0.00045478      -0.00036456
C        1.47293962       8.83243567       6.39145335      -0.00155989       0.00039447       0.00022075
H        2.04888977       9.31431025       5.60304809      -0.00191658       0.00069130      -0.00021190
C        2.15914512       8.14682334       7.41045091      -0.00130159       0.00021718       0.00028263
C        3.64293825       8.05616856       7.40239703      -0.00126212       0.00018876       0.00003062
C        0.08930178       8.88729268       6.39394518      -0.00169250       0.00007686       0.00100558
H       -0.44510969       9.41609187       5.60246856      -0.00240580       0.00004415       0.00143839
O        4.25313648       8.67718479       6.46904477      -0.00131700       0.00042011       0.00019943
C        1.42242930       7.53015550       8.43420092      -0.00073334      -0.00017890       0.00053205
H        1.95531419       7.00380408       9.22441438      -0.00108809      -0.00060725       0.00078704
C        0.03522263       7.58043316       8.44468105      -0.00083075      -0.00004496       0.00059146
H       -0.52182736       7.09568475       9.24650749      -0.00061247      -0.00008605       0.00059334
O        4.16435218       7.35742553       8.33670708      -0.00011985       0.00019936      -0.00067168
C       -2.12093016       8.31317760       7.39089735      -0.00162968       0.00045913       0.00048093
O       -5.04127493       7.16912649       9.12412700      -0.00070787       0.00007604       0.00010577
H       -2.53567010       7.13099840       9.11861203      -0.00315531      -0.00033663       0.00009479
H       -2.55847938       8.88044513       6.56550751      -0.00148660       0.00111392       0.00079949
C       -2.21719222      22.24258208      23.13125219       0.00651515      -0.00256656      -0.00246407
C       -3.66468162      22.46167707      23.14205455      -0.00192105      -0.00390287       0.00224357
C        0.04246677      22.69985765      22.23038800       0.00225315       0.00884943       0.00317664
O       -4.13836545      23.25851150      22.25504983       0.01597951      -0.01218771      -0.02549736
C        2.20085939      23.33694130      21.27782249      -0.00258928       0.00206575      -0.00645616
H        2.78560221      23.88772861      20.54308100      -0.00091981       0.00054156      -0.00782128
C        2.87464501      22.57094740      22.24681126      -0.00618719       0.00054763      -0.00401293
C        4.36143168      22.52773099      22.26642037      -0.00186717       0.00118342      -0.00495619
C        0.81787702      23.39217838      21.26223502       0.00032887       0.00203044       0.00442204
H        0.29723709      23.98199162      20.50538721      -0.00440447       0.00022052       0.01215523
O        4.95143067      23.28779583      21.42732799       0.00281342      -0.00274787      -0.00438132
C        2.12283296      21.85709765      23.19415058      -0.00010660      -0.00285467      -0.00082359
H        2.64352888      21.25721777      23.93861711       0.01120661      -0.00171923      -0.00455771
C        0.73500947      21.91385366      23.19202489       0.00110410       0.00229050       0.00048331
H        0.16247218      21.35976186      23.93635414       0.01248405      -0.00093720       0.00305587
O        4.89874463      21.74085488      23.11587485       0.01789264       0.00701817      -0.01241541
C       -1.40082180      22.82428019      22.23575865      -0.00353166       0.01058832      -0.00151112
O       -4.32960849      21.83981592      24.04675571       0.00416440      -0.00628740      -0.00223326
H       -1.84726162      21.56584315      23.89747343      -0.00556393       0.00102612       0.02394767
H       -1.82465036      23.45379114      21.45008191      -0.00106830       0.01624977      -0.01432159
C        2.62468371      22.88809895       6.74132386       0.00137102       0.00024256       0.00002591
C        4.08429716      22.96622376       6.81499713       0.00109914      -0.00032433      -0.00053063
C        0.38783256      23.24547940       7.74527677       0.00258013       0.00068323       0.00056619
O        4.57581687      23.49317453       7.87912847       0.00097375       0.00037369      -0.00091338
C       -1.72762810      23.61565832       8.91258808       0.00187384       0.00016535       0.00047309
H       -2.28099598      23.92435493       9.79801252       0.00567567       0.00147274       0.00202344
C       -2.44323023      23.17922085       7.78317481      -0.00133975       0.00020486       0.00223739
C       -3.92889115      23.13543426       7.80348450      -0.00311683       0.00151135       0.00256254
C       -0.34436585      23.65030752       8.89356013       0.00230452       0.00026666      -0.00011849
H        0.21228356      23.98993924       9.76890774       0.00457499      -0.00006616      -0.00133150
O       -4.49675985      23.52954876       8.87767578      -0.00479054       0.00413588       0.00001568
C       -1.73658492      22.78016245       6.63713233       0.00056202       0.00112293       0.00262121
H       -2.29470961      22.44428740       5.76450746       0.00255848       0.00167905       0.00134483
C       -0.34842567      22.80845816       6.61016901       0.00108156       0.00093251       0.00156996
H        0.18910942      22.49594505       5.71441844       0.00166350       0.00098098       0.00171097
O       -4.49647450      22.70551808       6.74260332      -0.00364805      -0.00005792       0.00376394
C        1.83581334      23.28527963       7.75474313       0.00285056       0.00061239       0.00091282
O        4.74980546      22.50678547       5.81782930       0.00168461      -0.00085225       0.00038376
H        2.22509439      22.47268603       5.81941870       0.00060025       0.00047691       0.00033300
H        2.28804319      23.66991303       8.67251102       0.00364498       0.00045864       0.00083553
C       -2.56402446       7.29261961      23.59231162      -0.00082324      -0.00355830      -0.00255593
C       -4.02271917       7.16077070      23.53492294       0.00188483       0.00494948       0.00748794
C       -0.31638530       7.09956570      22.56757376       0.00012413      -0.00716213      -0.00066375
O       -4.53111642       6.62777564      22.48328505       0.03098265      -0.00265196      -0.00428830
C        1.81668693       6.81193545      21.40518041      -0.00237090       0.00207213       0.00534640
H        2.38210151       6.51343477      20.52346540      -0.00616033       0.00407235       0.00813239
C        2.51368454       7.28866694      22.53082202       0.00418731       0.00140076      -0.00196463
C        3.99981756       7.37106899      22.51801705       0.00141132       0.00275818       0.00012525
C        0.43514210       6.72092221      21.42259553       0.00045921       0.00087704       0.00393770
H       -0.10523828       6.35014676      20.54931404       0.00250515       0.00143914       0.00709277
O        4.58259247       6.95402740      21.46026334      -0.00354292      -0.00470251       0.00090124
C        1.78703712       7.67688744      23.66848948       0.00114900      -0.00329249      -0.00796345
H        2.32994384       8.04852420      24.53652726      -0.01243054      -0.00214708      -0.00493091
C        0.40003133       7.58948846      23.69470443       0.00443003      -0.00473119      -0.00904282
H       -0.15190150       7.89505134      24.58451565       0.00756907      -0.00646248      -0.01120893
O        4.55406662       7.84981389      23.56522182       0.00751365       0.00335263      -0.00395518
C       -1.76089854       6.97559899      22.56224797      -0.00187541      -0.00496663      -0.00388792
O       -4.67758256       7.59583400      24.55267030      -0.00145063      -0.00676330       0.00867856
H       -2.17527901       7.69122841      24.52702277      -0.00864630      -0.00304255      -0.00482843
H       -2.19614822       6.58948017      21.63693353      -0.01695824      -0.00556979       0.00197343
C        6.82272620       2.63896871       7.32012433      -0.00011634      -0.00023156      -0.00065177
C        6.91357842       4.09654872       7.24308763      -0.00035914       0.00007347      -0.00009579
C        7.78756975       0.38838881       6.96597609      -0.00004523      -0.00051861      -0.00082184
O        7.97677896       4.58281660       6.71082986      -0.00042213       0.00070907       0.00047467
C        8.90454379      -1.75272075       6.58815607      -0.00007919      -0.00066694      -0.00016538
H        9.77562177      -2.32479962       6.27290765      -0.00009718      -0.00064463       0.00020090
C        7.76162021      -2.44356191       7.03083827       0.00000441      -0.00050545      -0.00037073
C        7.74273860      -3.92971420       7.06739631       0.00010424       0.00001132      -0.00002910
C        8.91662668      -0.36906787       6.55416382       0.00013033      -0.00070626      -0.00046342
H        9.80131157       0.16913759       6.20883491       0.00029726      -0.00073321      -0.00037396
O        8.80409402      -4.52292143       6.67738447      -0.00057333      -0.00080200       0.00003034
C        6.63602188      -1.71100729       7.44023112      -0.00004039      -0.00059023      -0.00100934
H        5.75292849      -2.24841707       7.78216545       0.00003084      -0.00064261      -0.00130002
C        6.64072879      -0.32290090       7.41363378      -0.00023604      -0.00063479      -0.00113528
H        5.75991741       0.23335205       7.73513054      -0.00056125      -0.00075255      -0.00150439
O        6.66366359      -4.47181865       7.48602988       0.00070584      -0.00051633       0.00024673
C        7.82416529       1.83548698       6.92220221      -0.00013268      -0.00035327      -0.00063269
O        5.92388286       4.76830641       7.71237379      -0.00008304       0.00064495      -0.00038237
H        5.89597142       2.25373991       7.73848900      -0.00002581      -0.00041199      -0.00071378
H        8.74756793       2.27313345       6.53428556      -0.00007129      -0.00035712      -0.00061083
C       22.26206603       2.48336913      23.43817156      -0.00896803      -0.00034600      -0.01400005
C       22.38712972       3.93808073      23.32035963       0.02471124      -0.01197410       0.01673348
C       23.24168465       0.21451519      23.17046110       0.03030957      -0.01169998       0.00700974
O       23.51115743       4.37526814      22.87598651      -0.00257385       0.04181694       0.01815943
C       24.35064941      -1.91143908      22.70049929      -0.01359914      -0.00991476      -0.00159569
H       25.21103719      -2.46835629      22.33097563      -0.02347627      -0.00338052       0.02448989
C       23.21623278      -2.61603860      23.14461679       0.00161137       0.02442113       0.00011976
C       23.20024424      -4.10201374      23.12049996       0.01732841       0.04716357       0.00632792
C       24.36933683      -0.52854089      22.72983517       0.00334836      -0.02451216      -0.01147302
H       25.25692865       0.01567790      22.40002003      -0.03025232       0.00923767       0.00168563
O       24.20402669      -4.67023201      22.57055265      -0.03760192      -0.07434525       0.00500603
C       22.10206560      -1.89894051      23.61344497       0.00843780       0.02334444      -0.01347193
H       21.23215252      -2.45464884      23.96372093       0.01932920       0.04492919      -0.00529974
C       22.10426725      -0.50806581      23.62475106       0.01549348       0.00877719      -0.01436807
H       21.23741916       0.05139257      23.98005708      -0.00765356      -0.04204861       0.00046300
O       22.18559362      -4.66727824      23.65502919       0.05224982       0.00235524      -0.03202462
C       23.28143471       1.66163240      23.13644771       0.01148568       0.00549737      -0.00122298
O       21.37432917       4.64533642      23.67005953       0.04653777      -0.06170281      -0.03432898
H       21.29708386       2.12036416      23.78164604      -0.00874873      -0.02112780       0.00717167
H       24.23454805       2.09242088      22.82093795       0.02213796      -0.00220072      -0.02236033
C        7.35196577       2.31517090      22.04648706       0.00024516      -0.00068551      -0.00236695
C        7.44754297       3.77158953      22.17373717       0.00279338      -0.00109759      -0.00093817
C        8.17854949       0.03350830      22.54683753      -0.00042735       0.00052155      -0.00034744
O        8.43010574       4.22670382      22.86374189       0.00550966      -0.00552670      -0.00087406
C        9.11561997      -2.13813071      23.16654947      -0.00147006       0.00109036      -0.00057968
H        9.86479652      -2.73325913      23.68623130       0.00022361       0.00401308      -0.00002848
C        8.10489318      -2.79829565      22.44358980      -0.00166334       0.00043017      -0.00061672
C        8.06092120      -4.28411155      22.39484915      -0.00077728       0.00027351      -0.00115490
C        9.15297255      -0.75529045      23.21532512      -0.00067588       0.00106547      -0.00047635
H        9.93739449      -0.24328341      23.77569899      -0.00129803       0.00396626      -0.00202716
O        8.93296641      -4.89505163      23.09782728      -0.00186742       0.00187863       0.00115910
C        7.13622581      -2.03476476      21.77275660      -0.00085377       0.00140787      -0.00077123
H        6.35723569      -2.54845046      21.21175919      -0.00154842       0.00454601      -0.00231266
C        7.16342314      -0.64689030      21.81995487       0.00007331       0.00129003      -0.00069586
H        6.40236671      -0.06683411      21.29746479       0.00210690       0.00355251      -0.00102384
O        7.15572775      -4.79985449      21.65612115       0.00294257      -0.00283071      -0.00241226
C        8.23474446       1.47968583      22.62115349      -0.00036388       0.00018943      -0.00077923
O        6.53970426       4.46170025      21.58615882       0.00465015       0.00542909       0.00484798
H        6.51164476       1.95758094      21.45602560       0.00034113      -0.00424084       0.00001720
H        9.06739879       1.88912824      23.19903235      -0.00144788       0.00027464       0.00017431
C       23.01483196      -2.28104850       8.36616520       0.00054287       0.00018825       0.00289342
C       22.94199926      -3.73715727       8.23217652       0.00231240      -0.00043798       0.00622210
C       22.19121325      -0.01334668       7.80962234       0.00160879       0.00063948       0.00107734
O       21.99833927      -4.19275242       7.49066659      -0.00163445       0.00036678       0.01064239
C       21.27750320       2.14716864       7.12211012       0.00073107       0.00139008       0.00124222
H       20.55044258       2.73412464       6.56330212       0.00019962       0.00162120       0.00184028
C       22.25638476       2.81813998       7.87839669       0.00056644       0.00159668       0.00117232
C       22.29895355       4.30394861       7.91624622      -0.00039615       0.00165805       0.00172279
C       21.24364855       0.76367890       7.09075406       0.00204629       0.00129420       0.00099180
H       20.48447454       0.24093897       6.50584379       0.00255715       0.00184742       0.00029152
O       21.43938392       4.91573687       7.19854298       0.00115979       0.00299376       0.00122675
C       23.19585147       2.06531602       8.60092883       0.00088805       0.00178321       0.00089067
H       23.95082879       2.58632089       9.18732688       0.00095779       0.00122100       0.00136815
C       23.17053511       0.67747045       8.57397477       0.00107999       0.00177450       0.00007517
H       23.90620354       0.10571373       9.14003685       0.00127976       0.00193171      -0.00086711
O       23.19477847       4.82112512       8.66569817      -0.00182988       0.00209083       0.00274782
C       22.14963278      -1.45983830       7.74599249       0.00123080       0.00008221       0.00166185
O       23.82414846      -4.42257927       8.86107314       0.00431795      -0.00159937       0.00111246
H       23.82046977      -1.91307745       8.99672832      -0.00073123       0.00507731       0.00100550
H       21.34758856      -1.88170157       7.13487552       0.00073344       0.00360872      -0.00006914
C        7.27343083      23.10526357      12.14657678       0.00001833       0.00025649      -0.00088629
C        7.35134045      22.99429891      10.68859255      -0.00003353       0.00044362      -0.00084196
C        7.66561236      22.19832649      14.41594381       0.00002457       0.00027186      -0.00110800
O        7.84682675      21.90983920      10.21217391       0.00124550       0.00074910      -0.00008571
C        8.18077058      21.17277406      16.57327216      -0.00081982       0.00064086      -0.00028068
H        8.56212457      20.33749871      17.15846102      -0.00040071      -0.00073326      -0.00230984
C        7.72948178      22.32399396      17.24437000      -0.00228015       0.00057763       0.00027566
C        7.79947334      22.40238975      18.72600441      -0.00398914       0.00233792       0.00110424
C        8.14540652      21.10933065      15.19143216       0.00037680       0.00113818      -0.00057893
H        8.49529231      20.21667723      14.66969472       0.00164870       0.00281345      -0.00251339
O        8.38073928      21.42574505      19.31228522      -0.01024566      -0.00178664       0.00062196
C        7.23104509      23.40169826      16.49585458      -0.00170801      -0.00031759      -0.00098226
H        6.87381019      24.28663031      17.02008025      -0.00254897      -0.00049232      -0.00139159
C        7.19618469      23.34817958      15.10858743      -0.00032736      -0.00025579      -0.00108395
H        6.81146232      24.19365006      14.53776473       0.00072556       0.00024412      -0.00068667
O        7.28041464      23.43187129      19.27613104       0.00308675       0.00460041       0.00246939
C        7.67724291      22.12222541      12.96946962       0.00035074       0.00017586      -0.00121141
O        6.92106951      23.99767029      10.01266880      -0.00108168      -0.00031693      -0.00106609
H        6.86532633      24.04291667      12.51669563      -0.00054391       0.00005362      -0.00119581
H        8.05683698      21.18745661      12.54894205       0.00051826       0.00063255      -0.00212786
C       23.05226734       7.16304483      18.20679513       0.00232620      -0.00828907      -0.00560697
C       23.04920589       7.29555944      19.66529263      -0.00717544       0.00368457      -0.00095060
C       22.52261919       8.04277542      15.95313795       0.00067935       0.00357162      -0.00494209
O       22.58976658       8.39712116      20.13808500       0.01047617       0.00207185       0.01964119
C       21.92449659       9.07289565      13.81918260      -0.00364087       0.01214919      -0.00535678
H       21.51288556       9.90656936      13.25360822      -0.00677007       0.01266519      -0.01071407
C       22.39216403       7.94383844      13.12349682      -0.00304409       0.00220616       0.00269647
C       22.33534720       7.89830285      11.63877146       0.00089243      -0.00271971       0.00202346
C       21.98917584       9.12185562      15.20045598      -0.00321765       0.00847293      -0.00251214
H       21.62795112       9.99890508      15.74011820      -0.00312310       0.00783978       0.00273285
O       22.84825440       6.87051430      11.07973176       0.00307507       0.00056319      -0.00172132
C       22.91984368       6.86533803      13.85175626       0.00333354      -0.00276237      -0.00415829
H       23.28103212       5.99210303      13.31131247       0.00303347      -0.00697356      -0.00493110
C       22.98701791       6.90450447      15.23849590       0.00078608      -0.00035678      -0.00193058
H       23.39900156       6.05908117      15.79023348      -0.00065503       0.00422730       0.00972389
O       21.77976738       8.89382810      11.06008127       0.00113576      -0.00662846      -0.00359185
C       22.57677770       8.12503207      17.39812298      -0.00190775      -0.00179484      -0.00126512
O       23.49872239       6.29976633      20.33720126       0.00312940       0.00004089      -0.01019926
H       23.45672320       6.23001005      17.82337327       0.00742829      -0.01725527       0.00071466
H       22.19091342       9.05032543      17.83362807      -0.00232778       0.00727891      -0.01140536
C       22.61444283      22.46925525      12.84856882       0.00659479       0.00703688       0.00751214