520
Lattice="30.373853305303218 0.0 0.0 0.0 30.373853305303218 0.0 0.0 0.0 30.373853305303218" Properties=species:S:1:pos:R:3:forces:R:3 energy=-3497.3396603313213 stress="2.188060093423266e-06 6.549292077986679e-06 -1.615128945910091e-06 6.549292077986679e-06 -4.41958662030724e-05 -6.727479565863254e-06 -1.615128945910091e-06 -6.727479565863254e-06 -4.040755593076253e-05" pbc="T T T"
C        7.51274385       6.90170886      -2.80325959      -0.00123371      -0.00022942      -0.00104468
C        7.49409301       7.02367731      -4.26145548       0.00044804      -0.00011598      -0.00097900
C        7.04366441       7.80746603      -0.54789742       0.00086945       0.00002292      -0.00074474
O        6.99788427       8.10682625      -4.74205352      -0.00088882      -0.00113507      -0.00166836
C        6.59325028       8.88568817       1.59895611       0.00005849      -0.00018088      -0.00084453
H        6.24776924       9.74227277       2.17543719      -0.00038368      -0.00020574      -0.00127191
C        7.04947491       7.74452447       2.28388940       0.00002979       0.00022691      -0.00039613
C        7.08186046       7.71865293       3.76977754      -0.00042819       0.00050823      -0.00018272
C        6.58877380       8.91600098       0.21522468       0.00041810      -0.00023021      -0.00081888
H        6.23783284       9.80136273      -0.31815396       0.00007652      -0.00034198      -0.00075820
O        6.62244669       8.75069155       4.36496032       0.00063961       0.00105313      -0.00026125
C        7.48690809       6.63320739       1.54567925       0.00060870       0.00045858      -0.00044182
H        7.83311931       5.74922952       2.07887937       0.00056603       0.00086297       0.00013197
C        7.48605892       6.65496706       0.15745613       0.00118276       0.00009199      -0.00053469
H        7.82811504       5.78508583      -0.40372359       0.00172770       0.00003084      -0.00028341
O        7.56937971       6.66727596       4.30757197      -0.00175025       0.00001356       0.00013014
C        7.05352419       7.87265151      -1.99484406       0.00081754       0.00056214      -0.00074948
O        7.97137370       6.04032061      -4.93471836       0.00387648       0.00106644      -0.00038416
H        7.93309155       5.97490486      -2.42021770      -0.00309302      -0.00168687      -0.00283288
H        6.65821883       8.79521979      -2.42756415       0.00226993       0.00101271      -0.00141145
C       22.84389907      23.47990945       2.75543630      -0.00201625       0.00130016       0.00215367
C       22.92735101      23.38559891       4.21294708      -0.00185708       0.00189021      -0.00118804
C       23.18588394      22.51362181       0.50344007       0.00346706      -0.00062589       0.01006583
O       23.44997837      22.31321502       4.69082369      -0.00490115       0.00366474       0.00422550
C       23.58547906      21.39403107      -1.63043988      -0.00146522       0.00511620       0.00154923
H       23.92306282      20.52802448      -2.19747564      -0.00397868       0.00499861      -0.00498126
C       23.11156009      22.52306926      -2.32442099      -0.00354654       0.00667341      -0.00089560
C       23.08657461      22.53683929      -3.80852196       0.00092899      -0.00321102      -0.01127705
C       23.62457117      21.39129424      -0.24779860       0.00013236       0.00021002       0.00449466
H       23.99688472      20.52136827       0.29614785      -0.00090803      -0.01010582      -0.00940099
O       22.63132446      23.59096021      -4.36836745      -0.00951308       0.00370435      -0.00220638
C       22.67428222      23.64151621      -1.59869661      -0.00122242       0.00651717       0.00798140
H       22.30964440      24.51204370      -2.14128851      -0.00360583       0.00425054      -0.00105775
C       22.70532214      23.64502157      -0.21107780       0.00140342       0.00137257       0.01189589
H       22.36299870      24.52034431       0.34107369      -0.00148069       0.00102795       0.01335067
O       23.52855258      21.48614337      -4.38480368       0.00797237      -0.00369701       0.00620588
C       23.24061489      22.48024059       1.94974650       0.00051403       0.00177911       0.00550123
O       22.47473115      24.37759226       4.89043462       0.00463719       0.00141671       0.00332095
H       22.42846789      24.40768049       2.36965786      -0.00133007       0.00124361       0.01002480
H       23.63979368      21.55978102       2.38382092      -0.00271084       0.00517296       0.00541028
C       22.63395177       8.18540936       2.98114840      -0.00346059      -0.00336062      -0.00328442
C       22.53550708       8.09287205       4.43975512       0.00102159       0.00301384       0.00051841
C       22.09174562       7.36047413       0.70974494      -0.01263488      -0.00608626       0.01085004
O       21.82036937       7.13689985       4.91132178       0.00324936       0.00438300       0.00586468
C       21.48212559       6.39673100      -1.45480721       0.00467452       0.00630137       0.00468443
H       20.96798105       5.63906735      -2.04431355       0.01130614       0.01217399      -0.00794783
C       22.21515781       7.39772620      -2.11978755       0.00428237       0.00167879      -0.00182319
C       22.33920076       7.40656575      -3.60084680       0.00205855      -0.02325211      -0.01975834
C       21.42469368       6.37773795      -0.07101710      -0.00275201       0.00875345       0.00240157
H       20.86283192       5.60121772       0.45251614       0.00446619       0.00404436      -0.01837215
O       21.68511540       6.52119164      -4.24428534      -0.00636108      -0.02533467      -0.01375635
C       22.86608509       8.38458414      -1.36400090       0.00466332       0.00712231       0.01184846
H       23.42452229       9.16230162      -1.88174598       0.00987371       0.00982768       0.00121807
C       22.81311802       8.37389951       0.02266208      -0.01144633      -0.00345892       0.01681350
H       23.32742760       9.14592286       0.59501033       0.00170668      -0.00030948       0.00087833
O       23.10693391       8.30738571      -4.08780896      -0.00175533      -0.00128558      -0.00277282
C       22.02598676       7.31449828       2.15680912      -0.00645948      -0.00454923       0.00260287
O       23.17224138       8.97974945       5.11298691      -0.00078011      -0.00471470       0.01083914
H       23.24026637       9.00966571       2.61237780      -0.00220632      -0.00230646      -0.00028579
H       21.43153082       6.49907886       2.57657046       0.00150852      -0.00313483      -0.00022366
C        8.27636378      23.02755543       2.09639604       0.00001930       0.00005297       0.00031721
C        8.10956507      22.95432668       3.54991239      -0.00006174       0.00006978       0.00023324
C        7.75311834      22.22610947      -0.18785661       0.00008575       0.00037303       0.00053744
O        7.33206581      22.03310450       3.99150403      -0.00026740       0.00020314       0.00014841
C        7.10609498      21.31860457      -2.36317191       0.00022434      -0.00002847       0.00090690
H        6.55819331      20.59251705      -2.96145953       0.00039130       0.00054787       0.00003914
C        7.87425996      22.29908253      -3.01802107       0.00100343      -0.00023260       0.00178511
C        7.92513707      22.34805910      -4.50356445       0.00242206       0.00002770       0.00256227
C        7.04748365      21.28225504      -0.98088812      -0.00002006       0.00015962       0.00075310
H        6.45027100      20.52332008      -0.47216953      -0.00010887       0.00007207       0.00052672
O        7.21588813      21.48322333      -5.11753428       0.00425244      -0.00050806       0.00130662
C        8.58640083      23.23400277      -2.24955187       0.00054933       0.00037011       0.00121591
H        9.18401110      23.98832741      -2.75874085       0.00029756       0.00044108       0.00104578
C        8.53292537      23.20532507      -0.86211590       0.00029811       0.00056363       0.00098950
H        9.08831375      23.93905085      -0.27745560       0.00034890       0.00062527       0.00084903
O        8.66989872      23.24992441      -5.01515525       0.00233772       0.00137696       0.00464585
C        7.65894266      22.17834681       1.25699582      -0.00006239       0.00012606       0.00033367
O        8.75102233      23.81754560       4.24754148       0.00005941      -0.00004939       0.00025587
H        8.93365589      23.81914098       1.74445343       0.00010199      -0.00008984       0.00016528
H        7.02652355      21.38380624       1.66130515      -0.00017185       0.00000066      -0.00014555
C       -2.92456716       7.72284852       8.28685174      -0.00136610       0.00013723      -0.00037862
C       -4.38427678       7.81294196       8.21707658      -0.00169683       0.00040981      -0.00085666
C       -0.67138013       8.25532888       7.41235543      -0.00078628       0.00045747       0.00063143
O       -4.87252902       8.52135513       7.26446299      -0.00236598      -0.00093855      -0.00071948
C        1.47551910       8.82823895       6.39101588      -0.00121440       0.00046002       0.00032539
H        2.05246440       9.30917612       5.60276554      -0.00157577       0.00049386       0.00037838
C        2.16010903       8.14422096       7.41216272      -0.00057005       0.00041802      -0.00039784
C        3.64385947       8.05487920       7.40596957      -0.00032753       0.00045081      -0.00078561
C        0.09200825       8.88285359       6.39130679      -0.00113894       0.00060405       0.00063776
H       -0.44162363       9.41046594       5.59853333      -0.00090948       0.00067683       0.00054724
O        4.25413934       8.67448090       6.47166943      -0.00019229       0.00052752      -0.00066748
C        1.42211643       7.52798097       8.43535960      -0.00054633       0.00051249      -0.00037276
H        1.95377455       7.00240780       9.22696773      -0.00014761       0.00054384      -0.00084731
C        0.03489729       7.57788581       8.44345510      -0.00059382       0.00032586       0.00053784
H       -0.52365079       7.09354107       9.24451095      -0.00049565       0.00009884       0.00063717
O        4.16537774       7.35870763       8.34210350      -0.00014145       0.00034825      -0.00092331
C       -2.11902747       8.31166786       7.38561128      -0.00081847       0.00042936       0.00020684
O       -5.04447304       7.17740440       9.11515241      -0.00061577       0.00078594       0.00028043
H       -2.53817671       7.13444774       9.11579083      -0.00302375       0.00028402       0.00060657
H       -2.55439544       8.87775596       6.55826882      -0.00194571       0.00077215       0.00088129
C       -2.18075258      22.08626305      23.17521178       0.00286583       0.00444505      -0.00647850
C       -3.63700785      22.19735531      23.11539510      -0.01032699       0.00703897      -0.00353981
C        0.05913139      22.64002242      22.27999875       0.02100558      -0.00257413       0.00099116
O       -4.11807612      22.84183831      22.11320430      -0.00918112       0.00834725      -0.00628327
C        2.19106164      23.33395928      21.30618211       0.00355481      -0.00281087       0.00295302
H        2.75579491      23.89673337      20.56431812      -0.00623882      -0.00434153       0.00494007
C        2.89171253      22.57418400      22.26135564       0.00456841       0.00108918      -0.00175647
C        4.37865186      22.53910111      22.25431154       0.00106690       0.00226715      -0.00270433
C        0.80715471      23.36320388      21.31254270       0.00755072      -0.00013225      -0.00223200
H        0.26297282      23.95000089      20.57013563      -0.00354633      -0.00390573       0.00296775
O        4.95675972      23.29923702      21.40738003       0.00277036       0.00047723      -0.00286267
C        2.16808141      21.85062821      23.22322520       0.00651308       0.00178518      -0.00405874
H        2.71113772      21.26152322      23.96070897       0.00311662       0.00468484      -0.00836097
C        0.78002044      21.88024783      23.24123037       0.00971378      -0.00562762       0.00381019
H        0.23062980      21.31618510      23.99528736      -0.00015764      -0.00367458       0.00049171
O        4.92919918      21.75275974      23.09560430      -0.00071997       0.00334924      -0.00071768
C       -1.38772279      22.69046586      22.27377319       0.01864930       0.00055662      -0.00507050
O       -4.30664409      21.65003945      24.06288010       0.00237438       0.00614663       0.00229554
H       -1.78835575      21.50200575      24.00377907      -0.00410640       0.00337240       0.00220935
H       -1.83616869      23.27659525      21.46751776       0.01339858       0.00096373      -0.00516363
C        2.62692693      22.88721568       6.74260662      -0.00054147       0.00005593      -0.00014384
C        4.08645388      22.96429913       6.81567347      -0.00065337       0.00019924       0.00004092
C        0.39020993      23.24497890       7.74543192      -0.00010832      -0.00010624      -0.00044189
O        4.57829027      23.48971457       7.88032655      -0.00078766       0.00039872       0.00002704
C       -1.72889364      23.61240773       8.90800367       0.00111378       0.00031269       0.00024891
H       -2.28356980      23.92135055       9.79253008       0.00061973      -0.00007598       0.00012920
C       -2.44248251      23.17396236       7.77758435       0.00207816       0.00015068      -0.00016105
C       -3.92883306      23.12761794       7.79250483       0.00302612       0.00024743       0.00083810
C       -0.34530011      23.64916904       8.89180059       0.00079547       0.00019542       0.00008913
H        0.20974339      23.98998569       9.76776202       0.00079369       0.00000712       0.00017147
O       -4.50055832      23.52419243       8.86335016       0.00522955      -0.00095515       0.00275282
C       -1.73196656      22.77656077       6.63351685       0.00062146       0.00012829      -0.00080184
H       -2.28679853      22.43979950       5.75925114      -0.00080133       0.00030283      -0.00001827
C       -0.34379999      22.80752216       6.60923133       0.00037598      -0.00019577      -0.00087848
H        0.19572091      22.49646656       5.71428432      -0.00007147      -0.00060244      -0.00101880
O       -4.49187684      22.69382630       6.73072481       0.00082651       0.00264668       0.00110710
C        1.83840227      23.28484703       7.75622243      -0.00049238      -0.00001670      -0.00013995
O        4.75124362      22.50578147       5.81764469      -0.00041333       0.00010493       0.00026387
H        2.22738595      22.47236505       5.82046512      -0.00060610      -0.00002956      -0.00006627
H        2.29113273      23.66917160       8.67393468      -0.00112760       0.00009796       0.00005379
C       -2.52897351       7.37422777      23.59260980       0.00081207      -0.02864399       0.01589884
C       -3.97647923       7.18091970      23.51964469       0.02536123       0.00783493       0.01385819
C       -0.27691791       7.12351655      22.58410560      -0.02680192       0.00301543      -0.00379874
O       -4.44359123       6.72210655      22.41389222      -0.00491592       0.02860044       0.02597729
C        1.84541249       6.79802554      21.42039571       0.00436370       0.00442756       0.00309695
H        2.40565826       6.48607602      20.54065802       0.00777534       0.00568332      -0.00224032
C        2.54724277       7.28109857      22.54010183       0.00631409       0.00050596       0.00607480
C        4.03073231       7.36939046      22.51693048       0.01198759      -0.00200711       0.00115528
C        0.46458554       6.72183612      21.44139181      -0.00653971       0.00989751       0.00227900
H       -0.08537063       6.35088359      20.57440787       0.01141093      -0.00046131      -0.00219020
O        4.60768586       6.96628047      21.45090105       0.00130970      -0.00651534      -0.00419203
C        1.83030695       7.67305148      23.68231123      -0.00736387       0.00153057       0.00116424
H        2.37761933       8.03842933      24.54968485       0.00714966       0.00271134      -0.00216646
C        0.44385779       7.59988680      23.71283239      -0.01503437       0.00194928      -0.01474235
H       -0.10723166       7.90794169      24.60214283       0.01003872       0.00015746       0.00087245
O        4.58922777       7.83987784      23.56515042      -0.00239471       0.00434989       0.00625364
C       -1.72180758       7.03342696      22.57356860      -0.00968671      -0.01707376      -0.00691991
O       -4.66512429       7.47584426      24.56600743       0.01291187       0.00144449       0.00278638
H       -2.16140715       7.79788516      24.52503290       0.02116410      -0.02167007      -0.03195479
H       -2.16002858       6.64638779      21.64954950       0.00957947       0.00536675       0.00468928
C        6.82296697       2.64040340       7.32652901      -0.00013788      -0.00049968      -0.00087801
C        6.91288174       4.09783684       7.24585783      -0.00001521      -0.00056584      -0.00043788
C        7.78774173       0.38967527       6.97286459       0.00006439      -0.00021674      -0.00098323
O        7.97605556       4.58329754       6.71286492       0.00020535      -0.00040452       0.00006944
C        8.90343561      -1.75123424       6.59063816       0.00022063      -0.00019084      -0.00040177
H        9.77358191      -2.32338423       6.27298808       0.00036199      -0.00013014      -0.00009799
C        7.76107245      -2.44204211       7.03458513       0.00017327      -0.00027210      -0.00056979
C        7.74133920      -3.92808613       7.06777665       0.00031784      -0.00035722      -0.00005534
C        8.91587400      -0.36760983       6.55819647       0.00018381      -0.00018617      -0.00059742
H        9.80000330       0.17062724       6.21152987       0.00023208      -0.00013629      -0.00038909
O        8.80187306      -4.52115218       6.67535521       0.00046165      -0.00031424       0.00027381
C        6.63683665      -1.70975152       7.44813094      -0.00000930      -0.00019580      -0.00115429
H        5.75452426      -2.24744652       7.79164037      -0.00013714      -0.00011575      -0.00137278
C        6.64198009      -0.32164353       7.42330957      -0.00008291      -0.00020006      -0.00138304
H        5.76225904       0.23450928       7.74797293      -0.00023021      -0.00018580      -0.00181543
O        6.66229700      -4.47039771       7.48616068       0.00031218      -0.00029430       0.00001059
C        7.82406358       1.83670360       6.92822259       0.00005488      -0.00026454      -0.00082094
O        5.92252815       4.77022477       7.71280861      -0.00013525      -0.00058568      -0.00060686
H        5.89720861       2.25550579       7.74738068      -0.00033145      -0.00051239      -0.00131400
H        8.74684946       2.27414469       6.53862675       0.00009934      -0.00010215      -0.00051332
C       23.67420108      -2.76528751      23.02789212      -0.00575504      -0.00841622       0.00236731
C       23.54575376      -4.22190669      23.08580616      -0.00091753      -0.01034421       0.00084486
C       22.72799042      -0.50049190      23.37033378      -0.00161581       0.00469530       0.00113719
O       22.45872508      -4.68306512      23.59324946      -0.00043078      -0.01466155      -0.00022922
C       21.62598367       1.64366422      23.77626366      -0.00454532      -0.00503210       0.00383775
H       20.76197351       2.21732896      24.10729814      -0.00160438      -0.00189360       0.00267308
C       22.76593229       2.33156852      23.32364710      -0.00360129      -0.00623237       0.00415732
C       22.78719056       3.81758279      23.29453948      -0.00885302      -0.00187220      -0.00125321
C       21.60834218       0.26042931      23.79933372      -0.01169802      -0.00516160       0.00590419
H       20.72556864      -0.27587497      24.15069589      -0.01653088      -0.00380036       0.00876738
O       21.74582039       4.40985333      23.73777267      -0.00138037       0.00890427       0.00508560
C       23.88183040       1.59639927      22.89156408       0.00005012      -0.00332993       0.00208984
H       24.76121858       2.13318603      22.53894656      -0.00078432      -0.00418705       0.00170485
C       23.87090709       0.20776887      22.90902149       0.00671364      -0.00406140      -0.00046746
H       24.74203488      -0.35183938      22.56812194       0.00950472      -0.00946288       0.00053942
O       23.84629373       4.35544391      22.82619607      -0.01702505       0.00560779      -0.00564314
C       22.67901289      -1.94752075      23.41178084       0.00095933       0.00378994      -0.00091936
O       24.52327975      -4.91692422      22.62730129       0.00238798      -0.00642637      -0.00078231
H       24.62080562      -2.39484223      22.64117918      -0.01388601       0.00612323      -0.00021772
H       21.74561145      -2.37247278      23.79048207       0.00630572      -0.00420046      -0.00198259
C        7.35132246       2.31981201      22.05375125       0.00072716      -0.00022173      -0.00080254
C        7.45397658       3.77550068      22.17910625       0.00212741      -0.00046356       0.00092245
C        8.17508625       0.03713323      22.54977975       0.00034692       0.00026021      -0.00012618
O        8.44187291       4.22631156      22.86494500       0.00166334       0.00099097       0.00055118
C        9.11053876      -2.13525263      23.16651854       0.00097537       0.00129684       0.00059173
H        9.86026424      -2.73103542      23.68450837       0.00106037       0.00184286       0.00093848
C        8.09795967      -2.79399401      22.44502589       0.00164069       0.00113372       0.00005962
C        8.05740100      -4.27978955      22.39277228       0.00333594       0.00125990       0.00023430
C        9.15004566      -0.75269538      23.21554455       0.00053129       0.00112514       0.00044883
H        9.93654664      -0.24133942      23.77348746       0.00031185       0.00151593       0.00044224
O        8.92946593      -4.88999277      23.09673300       0.00479341       0.00337231       0.00039968
C        7.12812162      -2.02905622      21.77685229       0.00115910       0.00030640      -0.00004340
H        6.34704561      -2.54056582      21.21670595       0.00210102      -0.00148840       0.00037703
C        7.15724456      -0.64123680      21.82487659       0.00042158       0.00030801      -0.00060534
H        6.39647909      -0.05909993      21.30422208       0.00038465      -0.00014660      -0.00135082
O        7.15630911      -4.79548510      21.64963003       0.00388197      -0.00065776       0.00107360
C        8.23469038       1.48279724      22.62472003       0.00036933      -0.00008309      -0.00012692
O        6.54741676       4.47047369      21.59584085       0.00108314      -0.00118572       0.00119015
H        6.50610885       1.96327230      21.46977094       0.00003916       0.00242186      -0.00209931
H        9.07024667       1.89010561      23.19981602      -0.00003711       0.00055890       0.00026791
C       23.01078409      -2.28253122       8.36063154       0.00005334       0.00349554       0.00086690
C       22.94460976      -3.73804971       8.21301017      -0.00081705       0.00365865       0.00243897
C       22.18628778      -0.01213651       7.81240890      -0.00029648       0.00273000      -0.00131971
O       22.00257858      -4.19251084       7.46855392      -0.00266918       0.00214803       0.00579896
C       21.27389893       2.14783385       7.12015526      -0.00094597       0.00208841      -0.00084101
H       20.54673965       2.73334397       6.56011317      -0.00076155       0.00317126      -0.00048359
C       22.25399069       2.82066974       7.87281181       0.00014246      -0.00035779      -0.00007878
C       22.30111951       4.30710996       7.90021320      -0.00011189      -0.00147575       0.00083196
C       21.23911406       0.76426964       7.09272534      -0.00076819       0.00243138      -0.00121165
H       20.47981874       0.24059618       6.50893399      -0.00075869       0.00257917      -0.00102971
O       21.44785691       4.91797060       7.17399085       0.00224904      -0.00169065      -0.00164954
C       23.19095530       2.06834354       8.59979911       0.00091901       0.00110457       0.00008732
H       23.94525746       2.59010402       9.18647026       0.00086229       0.00214329      -0.00034180
C       23.16514461       0.68005791       8.57622814       0.00004777       0.00162253      -0.00080319
H       23.90041382       0.10875845       9.14346023      -0.00009927       0.00197289      -0.00071599
O       23.19564727       4.82537118       8.65032444      -0.00242596      -0.00169122       0.00354347
C       22.14421123      -1.45871632       7.74614114       0.00061379       0.00298315      -0.00039939
O       23.83162689      -4.42428969       8.83374218       0.00172969       0.00579624       0.00155267
H       23.81332492      -1.91603809       8.99608953       0.00118826       0.00274923      -0.00032489
H       21.34034928      -1.87804555       7.13560151       0.00216706       0.00035743      -0.00021121
C        7.27449970      23.10260479      12.14408661      -0.00002378       0.00034380       0.00052321
C        7.35044847      22.99128476      10.68609299       0.00030936       0.00040015       0.00063501
C        7.66636415      22.19460919      14.41317976      -0.00027972       0.00015226       0.00002647
O        7.84024356      21.90452535      10.20898097       0.00128967       0.00077691       0.00075152
C        8.17451825      21.16596857      16.57118207       0.00101995       0.00072332      -0.00053004
H        8.55066504      20.32820764      17.15618829       0.00123051       0.00103965      -0.00027784
C        7.72879195      22.31933942      17.24242451       0.00132071       0.00078527      -0.00063997
C        7.80612037      22.40326101      18.72373274       0.00367794      -0.00000174      -0.00070165
C        8.14171994      21.10394828      15.18903943       0.00040499      -0.00000460      -0.00042306
H        8.49040274      20.21124555      14.66659060       0.00046408      -0.00037778      -0.00010292
O        8.39217568      21.43102326      19.31297980       0.00369064      -0.00091621      -0.00260299
C        7.23337311      23.39813920      16.49334676      -0.00040806       0.00040326      -0.00027979
H        6.87737597      24.28398363      17.01685713      -0.00126956      -0.00031475       0.00042431
C        7.20092063      23.34584221      15.10593775      -0.00101868       0.00035745      -0.00032844
H        6.82158520      24.19373261      14.53516465      -0.00176243       0.00022482      -0.00045194
O        7.28888867      23.43526549      19.27042804       0.00580221       0.00038159       0.00033800
C        7.67737874      22.11881882      12.96655512       0.00007603       0.00020570       0.00026043
O        6.92436346      23.99676973      10.01067403      -0.00044087       0.00004199       0.00058941
H        6.86886046      24.04133818      12.51414795      -0.00030532       0.00010332       0.00085608
H        8.05478053      21.18355987      12.54509028       0.00057043       0.00024836       0.00070430
C       23.05249283       7.14642607      18.17460379      -0.00903781       0.00876662       0.00782613
C       23.07851027       7.27773652      19.63338662      -0.00001714      -0.00317330       0.00344889
C       22.51550735       8.04664644      15.92986331       0.00288046      -0.00185156       0.00812210
O       22.60821386       8.36465560      20.12884020       0.00258632      -0.00864209       0.01851441
C       21.91412450       9.08124318      13.79860983      -0.00042601       0.00620544      -0.00006200
H       21.50170011       9.91531472      13.23383816      -0.00416513       0.00904203      -0.00723955
C       22.38267486       7.95325876      13.10070418       0.00001339      -0.00018879       0.00017942
C       22.32959858       7.90759096      11.61615351      -0.00161525       0.00054236      -0.00442560
C       21.97993694       9.12783738      15.18045186       0.00119329      -0.00076302       0.00275832
H       21.61917926      10.00317249      15.72356280      -0.00167432       0.00389789      -0.00147573
O       22.83518281       6.87520883      11.05829253       0.00518478       0.00047717       0.00113389
C       22.91053720       6.87343960      13.82605615       0.00398432      -0.00492462      -0.00025379
H       23.27201493       6.00059457      13.28542560       0.00150154      -0.00657588      -0.01205136
C       22.97863515       6.91056734      15.21223815       0.00241499      -0.00318532       0.00357315
H       23.39209609       6.06562647      15.76309965       0.00206842      -0.00522609       0.00190455
O       21.78456019       8.90683143      11.03424377      -0.00334488      -0.00001089      -0.00400578
C       22.57886640       8.11830853      17.37546678       0.00109341      -0.00566967       0.00506623
O       23.56856415       6.28750980      20.28718802      -0.01330085      -0.00375459       0.00817620
H       23.43845832       6.20435405      17.79061207      -0.00027956       0.02422403      -0.01297656
H       22.20307900       9.04308074      17.82139386      -0.00185801       0.00017535      -0.01797235
C       22.62019396      22.47383031      12.82601604      -0.00341840      -0.00506521      -0.00173388
C       22.70609789      22.64908897      11.37371634      -0.00172093      -0.00148622       0.00191696