520
Lattice="30.379369988969444 0.0 0.0 0.0 30.379369988969444 0.0 0.0 0.0 30.379369988969444" Properties=species:S:1:pos:R:3:forces:R:3 energy=-3497.338392162105 stress="4.567191446388206e-05 -5.7888436395299275e-06 -1.3551823525875338e-05 -5.7888436395299275e-06 -4.594001945378419e-05 3.565055329508488e-06 -1.3551823525875338e-05 3.565055329508488e-06 -4.473561335948463e-05" pbc="T T T"
C        7.29135757       6.88591508      -2.79697645       0.00456030       0.00184028       0.01562438
C        7.21062821       7.00438454      -4.25281790       0.00328504      -0.00432576       0.00890132
C        7.02139698       7.83012741      -0.52451647      -0.00418379       0.00547378      -0.00181746
O        6.79951436       8.12561945      -4.72476075       0.00375428      -0.00673620       0.00699127
C        6.64048740       8.90277180       1.63837160      -0.00376240       0.00695085      -0.00140821
H        6.31888640       9.76087531       2.22572109      -0.00432156       0.00966797       0.00361070
C        7.08477008       7.74870078       2.30859923      -0.00315074       0.00157929      -0.00238283
C        7.10989103       7.70701079       3.79521225      -0.00150371       0.00311560       0.00368273
C        6.61124907       8.94423375       0.25527210      -0.00093837      -0.00099134      -0.00023293
H        6.26580027       9.84038307      -0.26363500       0.00147269      -0.00486097      -0.00220358
O        6.64950730       8.73625252       4.39569442       0.00086659       0.00510676       0.00258860
C        7.50438008       6.64142552       1.55360967      -0.00073018      -0.00214039      -0.00231877
H        7.85419100       5.75130176       2.07379265      -0.00013303      -0.00300101       0.00705287
C        7.47664128       6.67246676       0.16505332      -0.00406879       0.00553861      -0.00197953
H        7.80454576       5.80577363      -0.40997235      -0.00282916       0.00343193       0.00862040
O        7.58784984       6.64978650       4.32986598       0.00057029       0.00480311       0.00637714
C        6.96371188       7.89397087      -1.97064377      -0.00091166      -0.00023635      -0.00092549
O        7.55636175       5.97265497      -4.93784992       0.01068706       0.01302204      -0.00418684
H        7.64331175       5.92473386      -2.43112819      -0.00442852      -0.01589397       0.00873166
H        6.61944182       8.84292625      -2.38921452      -0.00511875       0.00745448       0.00322635
C       22.84989932      23.48536222       2.80520045       0.00022383       0.00042250      -0.00258354
C       22.93223905      23.38408355       4.26214973      -0.00001533       0.00133320      -0.00277410
C       23.19316351      22.52907338       0.54809378      -0.00071910      -0.00006457      -0.00066979
O       23.43804316      22.30227380       4.73685195      -0.00084103       0.00220016      -0.00063474
C       23.58110781      21.42162461      -1.59522680       0.00074772      -0.00193187       0.00121660
H       23.91610802      20.55878867      -2.16852789       0.00039948       0.00000444      -0.00180829
C       23.10221823      22.55184268      -2.28283694       0.00140978      -0.00236163       0.00176168
C       23.06322299      22.56571684      -3.76803192       0.00286910      -0.00280167       0.00166972
C       23.62669558      21.41058868      -0.21229195      -0.00066840      -0.00004675       0.00054774
H       23.99936039      20.53518123       0.32278295      -0.00120952      -0.00035824      -0.00162195
O       22.56455678      23.60594760      -4.31823347      -0.00275538      -0.00671258       0.00028686
C       22.66961150      23.66711111      -1.54751605       0.00049018      -0.00115852      -0.00102804
H       22.29800116      24.53977016      -2.08226156       0.00135656      -0.00172133      -0.00290890
C       22.71243563      23.66495142      -0.15939767      -0.00055654      -0.00109777      -0.00163239
H       22.37693684      24.53806855       0.40098489      -0.00191649      -0.00098681      -0.00415449
O       23.53420644      21.53371560      -4.35637664       0.00798586       0.00480821      -0.00503917
C       23.24789939      22.48979715       1.99474125      -0.00017675       0.00014599      -0.00186730
O       22.49567972      24.38136083       4.94281449       0.00089053      -0.00033045      -0.00002592
H       22.43651796      24.41687369       2.42636092       0.00043074       0.00068620      -0.00084946
H       23.64628841      21.56813240       2.42677111      -0.00095490      -0.00015761      -0.00296943
C       22.65942357       8.22940514       3.06035624      -0.00095044       0.00013428       0.00171276
C       22.55639542       8.12885768       4.51712930      -0.00021431      -0.00077593      -0.00059020
C       22.14957329       7.39079852       0.78864975      -0.00165506       0.00025478       0.00300932
O       21.86848299       7.14804899       4.97837883      -0.00093143       0.00055435       0.00024123
C       21.52912671       6.44079255      -1.37571842       0.00200903       0.00160033      -0.00130897
H       21.01233219       5.68749664      -1.96807584       0.00073225      -0.00172747       0.00406007
C       22.25431279       7.44702745      -2.03912054       0.00182431       0.00103249      -0.00315553
C       22.33344662       7.46505511      -3.52207353       0.00394008       0.00074616      -0.00196564
C       21.47941560       6.41229913       0.00687563      -0.00091761      -0.00070372       0.00023727
H       20.92008569       5.63092622       0.52443018      -0.00164701      -0.00044949       0.00507163
O       21.67934701       6.55829536      -4.13796731       0.00821198      -0.00223914      -0.00154029
C       22.91885802       8.42561358      -1.28320020      -0.00106369      -0.00124164       0.00122002
H       23.47614983       9.20434030      -1.80154425      -0.00065368      -0.00179689       0.00325858
C       22.87488967       8.40394877       0.10393726      -0.00166959       0.00058705       0.00186647
H       23.40071932       9.16603352       0.67936037      -0.00297244       0.00224159       0.00286136
O       23.05329355       8.38636447      -4.03943968       0.00031136       0.00369431      -0.00061270
C       22.08207695       7.33991017       2.23432526      -0.00196786      -0.00020701       0.00349882
O       23.15993833       9.03081478       5.20056030       0.00078534      -0.00268052       0.00028340
H       23.23738066       9.07495380       2.69481282      -0.00102337      -0.00177441       0.00056429
H       21.50992854       6.50711700       2.65079859      -0.00282723      -0.00079081       0.00122934
C        8.27452986      23.03500151       2.10419906       0.00292093       0.00192300       0.00430687
C        8.11228934      22.96462642       3.55916081       0.00050585      -0.00161256      -0.00061269
C        7.75407169      22.21857809      -0.17721323      -0.00099212       0.00427277       0.00539724
O        7.34377938      22.03693323       4.00354969      -0.00356373      -0.00046623      -0.00532062
C        7.09409267      21.30283283      -2.34542065      -0.00226603      -0.00415573       0.00106231
H        6.54156224      20.57452898      -2.93642144      -0.00116094      -0.00225257      -0.00472577
C        7.85714813      22.28071732      -3.00969556      -0.00414879      -0.00403758      -0.00219731
C        7.89550927      22.32525133      -4.49668580      -0.00209498      -0.00265556       0.00117892
C        7.04538944      21.27084274      -0.96252953      -0.00105803       0.00259513       0.00319407
H        6.45220701      20.51396014      -0.44610213      -0.00127183      -0.00414598      -0.00583850
O        7.17324241      21.46546283      -5.10366398      -0.00507450       0.00118591      -0.00271716
C        8.57450101      23.21799811      -2.24831133      -0.00141254      -0.00177304      -0.00437520
H        9.16977868      23.97010130      -2.76341356       0.00045045       0.00103482      -0.00253497
C        8.52866454      23.19569306      -0.86022198      -0.00007781       0.00243248      -0.00135778
H        9.08563040      23.93365810      -0.28240976       0.00195068      -0.00197176       0.00610032
O        8.64351770      23.21957804      -5.01556266       0.00414331       0.01059713       0.02054633
C        7.66457012      22.17658391       1.26855023      -0.00216547       0.00394760       0.00612294
O        8.74708356      23.83398139       4.25587311       0.00148999      -0.00067288      -0.00298560
H        8.92139166      23.83225555       1.74582469       0.00223821       0.00157698       0.00838692
H        7.03896173      21.37861059       1.67680639       0.00142750      -0.00065380       0.00254905
C       -2.91702696       7.67615028       8.30743158      -0.00101735       0.00028474       0.00057552
C       -4.37679993       7.77610922       8.25042490      -0.00045751       0.00010243       0.00111868
C       -0.66619157       8.21555906       7.42983482      -0.00140184       0.00066955       0.00065001
O       -4.86829116       8.50081179       7.31153740       0.00015358       0.00060318       0.00130638
C        1.47835533       8.79660940       6.40728843      -0.00137755       0.00070140      -0.00017817
H        2.05337896       9.27704388       5.61734116      -0.00317449       0.00166735      -0.00074125
C        2.16637635       8.12284904       7.43272549       0.00040547       0.00097256      -0.00125842
C        3.65105715       8.04816933       7.43297427       0.00124959       0.00225566      -0.00216242
C        0.09442771       8.84271510       6.40630159      -0.00152687       0.00050023       0.00078708
H       -0.44145852       9.36387595       5.61077147      -0.00259812       0.00043459       0.00151441
O        4.26082142       8.65772249       6.49129775       0.00295477       0.00320643       0.00005490
C        1.43099968       7.50375518       8.45624139       0.00012930       0.00103704      -0.00089762
H        1.96523687       6.98411414       9.25003473      -0.00123511       0.00113376       0.00009529
C        0.04342509       7.54418858       8.46261365      -0.00014887       0.00081607      -0.00015437
H       -0.51271999       7.05858461       9.26463390      -0.00065704       0.00106176      -0.00034947
O        4.17443934       7.37308645       8.38326948       0.00081150       0.00082322      -0.00293362
C       -2.11418655       8.26858124       7.40599963      -0.00170388       0.00072324       0.00054451
O       -5.03378862       7.13314585       9.14521797      -0.00001981      -0.00027837       0.00099531
H       -2.52860002       7.07685251       9.12760733      -0.00004683       0.00020989      -0.00021598
H       -2.55238352       8.83635223       6.58129915      -0.00202382       0.00090494       0.00062116
C       -2.22105129      22.23758331      23.15793730       0.00007493       0.00545531      -0.00022734
C       -3.67575203      22.40248570      23.12890796      -0.00329088      -0.00237748       0.00350977
C        0.03645334      22.72190286      22.26353574       0.00674720       0.00403420      -0.00200870
O       -4.15727456      23.12786128      22.18503489      -0.00939897      -0.00102828       0.00972715
C        2.18545722      23.33635431      21.27244288       0.01094770      -0.00479602       0.00500976
H        2.76292735      23.87457435      20.52258219      -0.00416765       0.00221290      -0.00113670
C        2.86835959      22.56408434      22.23071648       0.00671508      -0.00747985       0.00757305
C        4.35550881      22.49709756      22.22410435       0.00333316      -0.00351889       0.00659949
C        0.80312100      23.41179576      21.28668214       0.01117890      -0.00139335      -0.00219360
H        0.27556621      24.01108923      20.54221890      -0.00425867      -0.00368309       0.00532758
O        4.94115708      23.25306898      21.37900237      -0.00559989      -0.00086452       0.00097197
C        2.12611019      21.87007899      23.19937782      -0.00153300      -0.00595351       0.00217644
H        2.65577385      21.27131177      23.93852086      -0.00053480      -0.00540793      -0.00040387
C        0.73890099      21.94206289      23.22327314      -0.00025541      -0.00081568      -0.00286008
H        0.17608511      21.39905207      23.98306327       0.00031468       0.00118489      -0.00224573
O        4.89795214      21.69792399      23.05971062       0.01150285      -0.00668239      -0.00038220
C       -1.40865128      22.83050736      22.26607650       0.00437982      -0.00082365       0.00048828
O       -4.34067938      21.81115242      24.05391129      -0.00703267      -0.00602661      -0.00276391
H       -1.84187109      21.60483250      23.95709756      -0.01000555       0.00428731       0.00486688
H       -1.83703897      23.45103368      21.47475306       0.00485211      -0.00127943      -0.00135156
C        2.62538604      22.89036379       6.74984540      -0.00119317       0.00000886      -0.00094757
C        4.08525518      22.96514673       6.82306257      -0.00240592      -0.00081944      -0.00114183
C        0.38904629      23.24995032       7.75449861       0.00086337      -0.00027120      -0.00008794
O        4.57691966      23.48938378       7.88832207      -0.00131276      -0.00142916      -0.00050201
C       -1.72750249      23.61701872       8.92182419       0.00166123       0.00045677       0.00043448
H       -2.28040246      23.92508766       9.80775381       0.00202502       0.00055562       0.00089624
C       -2.44337185      23.17998871       7.79248070       0.00182619       0.00012396       0.00014585
C       -3.92941541      23.13165324       7.81263267       0.00197147       0.00014149       0.00048637
C       -0.34402401      23.65301418       8.90288692       0.00160609       0.00015970      -0.00006147
H        0.21242592      23.99212360       9.77859912       0.00295633      -0.00008478      -0.00087371
O       -4.49776738      23.53654845       8.88219616       0.00099560      -0.00012626      -0.00007012
C       -1.73564231      22.78493020       6.64591192       0.00096771      -0.00017868      -0.00052589
H       -2.29307456      22.45003697       5.77257315       0.00135117      -0.00063756      -0.00097458
C       -0.34743906      22.81552067       6.61865132       0.00089231      -0.00018399      -0.00018349
H        0.19017359      22.50610242       5.72193894       0.00106447      -0.00026699       0.00000945
O       -4.49608321      22.68789220       6.75684594       0.00053839       0.00048535       0.00130281
C        1.83739379      23.28770010       7.76404625       0.00020447      -0.00004494      -0.00014217
O        4.75036719      22.50631377       5.82525458       0.00003849      -0.00021224       0.00033750
H        2.22455294      22.47770600       5.82731195       0.00053691      -0.00081736      -0.00086788
H        2.29054610      23.67008330       8.68238095       0.00120009       0.00012284      -0.00091047
C       -2.67897508       7.32462735      23.59272470       0.00868677      -0.00428983      -0.00153563
C       -4.13609804       7.19846398      23.52838695      -0.00003423      -0.00614809       0.00837188
C       -0.42867720       7.08924269      22.58661996       0.00661789       0.00125378      -0.00326017
O       -4.64024485       6.70511909      22.45495965      -0.00055387      -0.00023931       0.00452845
C        1.70716890       6.79014723      21.43473675      -0.00996172      -0.00052757      -0.01401924
H        2.27691913       6.48089098      20.56020160      -0.00856985       0.00186958      -0.01511754
C        2.40043446       7.28317789      22.55446528      -0.01523088      -0.00227816      -0.00688579
C        3.88242019       7.40171684      22.52628362       0.00219180      -0.00618593      -0.00038428
C        0.32568969       6.70472995      21.44556312      -0.00551133       0.00140066       0.00095141
H       -0.21091585       6.33701907      20.56875894      -0.00555372       0.00109536       0.01180247
O        4.46615582       6.91047813      21.50188765       0.02850127       0.00763951       0.01444983
C        1.67364600       7.65708771      23.69592969      -0.00915350       0.00452740       0.00052826
H        2.21468981       8.02991966      24.56422076      -0.00681397       0.00485613       0.00248973
C        0.28800210       7.55658712      23.72368028      -0.00417917       0.00413778      -0.00597458
H       -0.26215813       7.84260848      24.62090427      -0.00499027       0.00146622      -0.01534267
O        4.42444055       7.98403136      23.52497658       0.02342208      -0.03132721       0.00124083
C       -1.87518131       6.99987321      22.56588767       0.00928460      -0.00708050      -0.00245189
O       -4.79525064       7.59105076      24.56073740      -0.00199341      -0.00575718       0.00821226
H       -2.29112322       7.71630001      24.53008748      -0.00121213      -0.00204050       0.00794604
H       -2.31272672       6.63889027      21.63150771      -0.00325479      -0.01396631       0.00357018
C        6.80756935       2.64556442       7.38608924       0.00143072      -0.00258254      -0.00118280
C        6.90291605       4.10330468       7.31448329       0.00015356      -0.00263065      -0.00430052
C        7.76459442       0.39491622       7.00573445       0.00128441      -0.00193809      -0.00034439
O        7.95631349       4.58631983       6.76003885       0.00187874      -0.00157799       0.00028215
C        8.88226633      -1.74291711       6.61207258       0.00075009      -0.00142498      -0.00126376
H        9.75160069      -2.31231833       6.28739695       0.00104462      -0.00050308      -0.00093595
C        7.74606045      -2.43736050       7.06573361       0.00110925      -0.00217135      -0.00266120
C        7.73025411      -3.92407103       7.09502565       0.00128240      -0.00128788      -0.00416848
C        8.88995490      -0.35926194       6.57836132       0.00093501      -0.00168732      -0.00005194
H        9.76859438       0.18159538       6.22189735       0.00099573      -0.00150012       0.00100143
O        8.79390302      -4.51497394       6.70655818      -0.00268501      -0.00320325      -0.01116929
C        6.62355411      -1.70782460       7.48972192       0.00106153      -0.00236451      -0.00249041
H        5.74558703      -2.24775510       7.84085157       0.00066658      -0.00161400      -0.00269629
C        6.62445188      -0.31945181       7.46536188       0.00126629      -0.00241765      -0.00133711
H        5.74615978       0.23486419       7.79740353       0.00174750      -0.00171930      -0.00141680
O        6.65013313      -4.46967668       7.50609320       0.00377365      -0.00143929       0.00234468
C        7.79998896       1.84211294       6.96644850       0.00186383      -0.00212199      -0.00080350
O        5.92778992       4.77586591       7.81043766      -0.00281547      -0.00140449      -0.01163788
H        5.88754921       2.26080283       7.81954838       0.00164765      -0.00201769      -0.00003275
H        8.71640925       2.28091873       6.56360103       0.00194497      -0.00234723      -0.00117235
C       22.36423497       2.41355125      23.41665939       0.00321864      -0.00356879       0.00107010
C       22.46488893       3.87253752      23.35434170       0.00240511      -0.00267703      -0.00071177
C       23.32819514       0.15864825      23.08307186       0.00260714      -0.00294986      -0.00108384
O       23.56048896       4.36356070      22.89882057       0.00085357      -0.00139427      -0.00253260
C       24.42142446      -1.98402929      22.64971746       0.00302246      -0.00154789      -0.00201447
H       25.27907983      -2.55576522      22.29934885       0.00111680      -0.00493608      -0.00134351
C       23.28703667      -2.67434823      23.11424983       0.00272416      -0.00024504      -0.00120906
C       23.25858979      -4.16054384      23.12174262       0.00101746      -0.00074580      -0.00083363
C       24.44274280      -0.60021663      22.63743612       0.00322643      -0.00182871      -0.00218083
H       25.32223520      -0.06227164      22.27892735       0.00427257      -0.00404455      -0.00267624
O       24.25903576      -4.75509314      22.59421021      -0.00127482      -0.00588053       0.00225117
C       22.17884347      -1.94018477      23.56744603       0.00245665      -0.00154597      -0.00105041
H       21.30355803      -2.47587115      23.93158749       0.00375159      -0.00357909      -0.00094938
C       22.18991278      -0.55144117      23.55411785       0.00229424      -0.00201687      -0.00108721
H       21.32210143       0.00692884      23.90628945       0.00160064      -0.00392616      -0.00044895
O       22.23252762      -4.70435262      23.65536385       0.00097163      -0.00219733      -0.00307319
C       23.37220388       1.60579319      23.04586435       0.00210626      -0.00397007      -0.00014617
O       21.44231575       4.53267210      23.76208999       0.00486626       0.00098041      -0.00143931
H       21.41547554       2.03213765      23.78710904       0.00441823      -0.00597609       0.00128042
H       24.30521329       2.04226837      22.68011849       0.00198470      -0.00652455      -0.00136311
C        7.26714806       2.28328955      21.98648649      -0.00279973       0.00298997      -0.00124193
C        7.33669842       3.73783979      22.14454255      -0.00285347       0.00702010       0.00319763
C        8.10571553       0.00872102      22.50763550       0.00227048       0.00968718       0.00127712
O        8.27579953       4.18413538      22.89932869      -0.00040754       0.00696873      -0.00107452
C        9.07711309      -2.14738230      23.12499927      -0.00833810       0.00160290      -0.00250999
H        9.84124676      -2.73382785      23.63309932      -0.00368710       0.01223037      -0.00127106
C        8.05651769      -2.81979965      22.42821582      -0.00400420      -0.00496850      -0.00133048
C        8.02224200      -4.30522662      22.39440931      -0.00372308      -0.00308266      -0.00433154
C        9.10237190      -0.76439687      23.16300023      -0.00896365       0.00104588      -0.00529436
H        9.89416469      -0.24213475      23.70391760      -0.01746583       0.00897317      -0.00985327
O        8.89988587      -4.90627581      23.09860232      -0.00281819       0.00219905       0.00410509
C        7.06764216      -2.07229975      21.76836864       0.00390760       0.00422454       0.00227476
H        6.28237239      -2.59892063      21.22806925       0.00504175       0.01065126      -0.00123654
C        7.08371630      -0.68411628      21.80198069       0.01041010       0.00308224       0.00613135
H        6.30802821      -0.11377544      21.28935002       0.01275172      -0.00220836       0.00789110
O        7.11583370      -4.83028671      21.66398119       0.00343812      -0.01202343      -0.00687826
C        8.14521050       1.45497421      22.57817280       0.00539145       0.01242269       0.00200474
O        6.45886061       4.43699612      21.52407846      -0.00292663       0.00917513       0.01036153
H        6.45870791       1.91922718      21.35755574      -0.00762539       0.00560521      -0.00623552
H        8.96405942       1.87263619      23.16908595       0.01129078       0.00291310       0.00767808
C       23.00964682      -2.28619495       8.36950398       0.00072050       0.00019555       0.00069176
C       22.93424753      -3.74301673       8.24122865       0.00057838      -0.00001436       0.00068498
C       22.19565747      -0.01648633       7.80752308       0.00073644       0.00107020       0.00107731
O       21.97937617      -4.20402049       7.51719881       0.00071185       0.00003577       0.00071268
C       21.28049507       2.14682905       7.12923734       0.00042984       0.00099077       0.00102433
H       20.55183475       2.73567336       6.57450200       0.00065795       0.00126141       0.00105006
C       22.25982096       2.81545389       7.88697035       0.00023282       0.00063172       0.00144526
C       22.29843293       4.30122044       7.93666021       0.00014975       0.00040395       0.00180036
C       21.24742905       0.76331470       7.09248957       0.00069630       0.00109840       0.00087659
H       20.48731526       0.24256972       6.50706240       0.00080914       0.00142767       0.00050607
O       21.45168979       4.91746082       7.20768151       0.00067801       0.00098684       0.00184956
C       23.20366402       2.06004983       8.60107923       0.00031301       0.00106733       0.00149689
H       23.96039261       2.57884167       9.18721856       0.00013215       0.00105304       0.00164047
C       23.18008950       0.67227637       8.56720810       0.00046126       0.00115636       0.00128156
H       23.92046786       0.09921705       9.12565411       0.00025899       0.00093599       0.00115120
O       23.17880412       4.81256818       8.70788159      -0.00044789       0.00090085       0.00205584
C       22.14809682      -1.46315544       7.74668135       0.00103850       0.00074673       0.00108810
O       23.82770557      -4.42528403       8.85753678       0.00056878       0.00028279       0.00089610
H       23.81792724      -1.91796408       8.99666689       0.00059425       0.00086941       0.00051489
H       21.34365764      -1.88295894       7.13726094       0.00091371       0.00090027       0.00097599
C        7.28596753      23.08906380      12.14518988      -0.00486457      -0.00118113      -0.00616526
C        7.35315213      22.98026313      10.68741092       0.00117045      -0.00127047      -0.01496599
C        7.68473639      22.18296025      14.40982915      -0.00160680       0.00235656       0.01279388
O        7.83458730      21.89241107      10.20499688       0.01042775      -0.00910842       0.00455276
C        8.16361765      21.14474649      16.56862939       0.00468097       0.00011060       0.00939594
H        8.52694771      20.30338029      17.15600529       0.00506473      -0.01154977      -0.00162411
C        7.71964215      22.29889836      17.23906338       0.00195755       0.00846167       0.00721968
C        7.78784329      22.37699988      18.72050868       0.00626896      -0.00387810       0.02311020
C        8.14684210      21.08725735      15.18627022       0.00131037       0.00034420       0.00739136
H        8.49743981      20.19403917      14.66585771      -0.00546990       0.00338809      -0.00408175
O        8.35627109      21.39370791      19.30974460      -0.00517128      -0.02058484       0.00231909
C        7.24219250      23.38485356      16.48938032       0.00034567       0.00584521      -0.00170438
H        6.88922298      24.27212882      17.01250443      -0.00177419      -0.00044935       0.00189277
C        7.22545665      23.33793687      15.10165303      -0.00094329       0.00032087       0.00164554
H        6.86376971      24.19380477      14.53096310      -0.00286285      -0.00968045       0.00082769
O        7.28607575      23.41292404      19.27376148      -0.00960791       0.03036549      -0.02480455
C        7.69930520      22.10700081      12.96408687      -0.00165074       0.00355205       0.00539691
O        6.92810096      23.98862623      10.01593266      -0.00507353       0.01577119       0.01005491
H        6.87527951      24.02352561      12.51961976      -0.00076364       0.00893082      -0.00487791
H        8.08366808      21.17440835      12.54320586      -0.00306095       0.00210955      -0.00711424
C       22.90307118       7.20152129      18.25532658       0.00044643      -0.00101653      -0.00030732
C       22.82892783       7.30320209      19.71492301       0.00410562      -0.00282613       0.00098495
C       22.45361845       8.08938965      15.98955139      -0.00176973      -0.00006794      -0.00067064
O       22.27423322       8.35483455      20.19669105       0.00920472      -0.00049568       0.00200707
C       21.92097232       9.10986165      13.83355767      -0.00214611       0.00110708      -0.00028276
H       21.52537281       9.94019671      13.25098320      -0.00212171       0.00088469      -0.00060787
C       22.40125209       7.97259287      13.15874604      -0.00109276       0.00195998      -0.00104305
C       22.35493004       7.90560132      11.67458608      -0.00031667       0.00206037      -0.00086717
C       21.94824976       9.16794390      15.21612278      -0.00261561       0.00003917      -0.00015700
H       21.57476706      10.04943549      15.74042718      -0.00299953      -0.00041247       0.00017745
O       22.88136286       6.87780100      11.12841630       0.00098581       0.00218959       0.00017258
C       22.92034452       6.90337839      13.90631120      -0.00130869       0.00170039      -0.00155852
H       23.30030579       6.02856566      13.38098833      -0.00059882       0.00186132      -0.00119606
C       22.94969526       6.95246332      15.29401917      -0.00178724       0.00081144      -0.00164772
H       23.35045116       6.11320735      15.86306658      -0.00119080       0.00047568      -0.00284506
O       21.78864984       8.88759591      11.08388261      -0.00121144       0.00191960      -0.00020364
C       22.44351161       8.16316246      17.43641578      -0.00023577      -0.00105010      -0.00026759
O       23.32350252       6.32209831      20.37783859       0.00050241      -0.00368906       0.00215400
H       23.36546727       6.29089736      17.88130659      -0.00466279      -0.00192139      -0.00414478
H       22.02132135       9.07768105      17.86075651      -0.00042732      -0.00127191      -0.00028686
C       22.62702801      22.47256263      12.84620485      -0.00081243      -0.00092562       0.00274045