520
Lattice="30.37617141464239 0.0 0.0 0.0 30.37617141464239 0.0 0.0 0.0 30.37617141464239" Properties=species:S:1:pos:R:3:forces:R:3 energy=-3497.3378651843186 stress="-3.942715279072086e-05 -4.009584869265156e-06 -2.4786244782027754e-06 -4.009584869265156e-06 -4.3559239624606e-05 -5.317148765865306e-06 -2.4786244782027754e-06 -5.317148765865306e-06 -3.109117308687558e-08" pbc="T T T"
C        7.34918744       8.00167464       2.36924159      -0.00235161      -0.00031720      -0.00278419
C        7.39911528       7.93271502       3.83086386      -0.00429707      -0.00146414      -0.00259139
C        7.63078087       6.98819793       0.13007392       0.00087889       0.00005913      -0.00171251
O        7.83741823       6.84483240       4.35171874      -0.00663059      -0.00172891      -0.00109260
C        8.01674821       5.86647607      -2.00960664      -0.00065453      -0.00031244      -0.00094026
H        8.35971326       5.00481207      -2.58004375      -0.00073856      -0.00073127      -0.00060526
C        7.51860236       6.98446718      -2.70361341      -0.00167565       0.00056590       0.00020391
C        7.45185258       6.99617182      -4.18890880      -0.00443499       0.00173968       0.00055674
C        8.06771161       5.86675118      -0.62545518       0.00091329      -0.00014037      -0.00109938
H        8.44984344       4.99858571      -0.08505422       0.00154206       0.00088338       0.00022793
O        7.93659538       5.98613702      -4.80178936      -0.00418672       0.00095712       0.00188493
C        7.07915072       8.09983016      -1.97320215      -0.00041459       0.00094145       0.00001171
H        6.69263004       8.96421679      -2.51070688       0.00018684       0.00109020      -0.00020588
C        7.13052948       8.11005080      -0.58585142       0.00065627       0.00070163      -0.00035626
H        6.78201566       8.98349565      -0.03468386       0.00134406       0.00090693      -0.00035025
O        6.91087072       8.02903562      -4.71496201      -0.00540323       0.00096055       0.00037761
C        7.69786974       6.97205335       1.57797189       0.00018822       0.00018684      -0.00207283
O        6.99816113       8.97453996       4.46787973      -0.00473675      -0.00045083      -0.00503092
H        7.00120881       8.95092272       1.96843131      -0.00249356       0.00031870      -0.00181849
H        8.06553046       6.04534202       2.02591900       0.00109669       0.00170901       0.00029989
C       22.85874684      23.51171058       2.73084004      -0.00019317       0.00126941      -0.00164839
C       22.95597004      23.43254903       4.18881980       0.00079400      -0.00068761      -0.00137120
C       23.20732751      22.53916120       0.48104477       0.00077339      -0.00071828      -0.00134412
O       23.49666110      22.37267874       4.67374690       0.00112072      -0.00248525      -0.00545145
C       23.60394685      21.41780425      -1.65434264       0.00031612      -0.00065994      -0.00164354
H       23.94197678      20.55203174      -2.22138080       0.00100297      -0.00141762      -0.00015268
C       23.12683161      22.54282806      -2.35169210      -0.00033046      -0.00086743      -0.00172957
C       23.09239553      22.54998635      -3.83858192       0.00091395      -0.00194751      -0.00121349
C       23.64405678      21.41592911      -0.27086920       0.00028238      -0.00018113      -0.00174669
H       24.01553108      20.54429723       0.27121783      -0.00023608       0.00034820      -0.00125653
O       22.60559255      23.59441945      -4.39012205       0.00280130      -0.00180323      -0.00252964
C       22.68878973      23.66135944      -1.62446497       0.00005223      -0.00073888      -0.00174201
H       22.31849666      24.53018154      -2.16627656      -0.00000121      -0.00037499      -0.00125439
C       22.72457020      23.66818614      -0.23604536       0.00062182      -0.00153886      -0.00186211
H       22.38345857      24.54424195       0.31632108       0.00055386      -0.00242729      -0.00126958
O       23.55346944      21.51143978      -4.42147858       0.00160037      -0.00375395       0.00288248
C       23.26429834      22.51269469       1.92820698       0.00028915       0.00062881      -0.00082342
O       22.49580089      24.42661659       4.85826580       0.00358748      -0.00205930       0.00241798
H       22.42348631      24.42997001       2.34407528       0.00090762       0.00196975      -0.00181098
H       23.67209443      21.59834198       2.36692130       0.00004364       0.00122644       0.00127259
C       22.00707256       7.06527061      -2.30762630      -0.02626397       0.00529526      -0.00144741
C       22.18955498       7.14644949      -3.75707415       0.03951471      -0.00316732       0.02177013
C       22.46795559       7.94310828      -0.03636349       0.02680683       0.03190508       0.04219716
O       22.87632958       8.14986773      -4.17739286      -0.00918421      -0.02993067      -0.03804999
C       23.08496755       8.97436001       2.09211601       0.00355448       0.01403612       0.02981072
H       23.59097205       9.75641379       2.65438217       0.03038699       0.01960844      -0.00780052
C       22.39230894       7.97561621       2.80024126      -0.00661316      -0.01468353      -0.04380715
C       22.37992626       7.97460340       4.29047260      -0.00163841       0.00727190      -0.06711588
C       23.12173319       8.95933671       0.70855758       0.01339972       0.01538322       0.05138965
H       23.66402539       9.73044388       0.15629169      -0.00939904      -0.00512999       0.04606168
O       23.13685447       8.83437731       4.85798263      -0.05632574      -0.04098800       0.04409302
C       21.72333951       6.97602315       2.07388037      -0.03055760      -0.02774740      -0.00081877
H       21.16874074       6.21260183       2.61513054      -0.00714839      -0.02253821       0.04860957
C       21.75769742       6.94376291       0.68446052       0.01743264       0.02169246       0.00640462
H       21.24337194       6.14806895       0.14147519       0.02537423       0.04918504      -0.01740447
O       21.61840239       7.11576518       4.84880901       0.06338507       0.05073274       0.04171979
C       22.56240491       7.96350250      -1.47899012      -0.00102367      -0.00655524       0.00132512
O       21.66616998       6.22012165      -4.47158899      -0.00662734       0.04982674      -0.01411062
H       21.39821184       6.24258866      -1.94501279      -0.00764152      -0.04469504      -0.00407625
H       23.14717582       8.78799104      -1.89402944       0.00262858       0.01510633      -0.00545912
C        8.31687507      23.17476868       2.19309934       0.00039431       0.00016319      -0.00033209
C        8.13328384      23.11620669       3.64539456       0.00053269       0.00044878      -0.00008832
C        7.82779277      22.32809040      -0.08527358      -0.00020312      -0.00035292       0.00004024
O        7.36249869      22.18855957       4.08766579       0.00057931       0.00047936       0.00009630
C        7.19813674      21.37368967      -2.24499416      -0.00112218      -0.00079207       0.00068328
H        6.66011837      20.62944176      -2.82971407      -0.00116724      -0.00059422       0.00039279
C        7.95173639      22.35369505      -2.91688948      -0.00112364      -0.00088211       0.00063834
C        7.98769106      22.37697705      -4.40398679      -0.00111711      -0.00111793       0.00044035
C        7.13816151      21.36025035      -0.86269722      -0.00044134      -0.00032705       0.00055916
H        6.55061021      20.60166723      -0.34247029      -0.00027874      -0.00023211       0.00032545
O        7.26690897      21.50024202      -4.98892751      -0.00120729      -0.00074276      -0.00002623
C        8.65343240      23.30930071      -2.16378778      -0.00075376      -0.00060532      -0.00010627
H        9.24291725      24.06109978      -2.68614417      -0.00096402      -0.00092247      -0.00091396
C        8.59786608      23.30428778      -0.77530932      -0.00050464      -0.00057785      -0.00026562
H        9.14263252      24.05404842      -0.20057233      -0.00030008      -0.00048643      -0.00108685
O        8.72622401      23.26442320      -4.94819473      -0.00079741      -0.00139652       0.00038079
C        7.72333988      22.30324711       1.35961023       0.00029431      -0.00007916      -0.00001727
O        8.75282060      23.99450482       4.34422807       0.00053958       0.00044255      -0.00007045
H        8.96457723      23.97217186       1.83668626       0.00035923       0.00024601      -0.00055764
H        7.10023775      21.50449482       1.77038197       0.00057345      -0.00004013       0.00049897
C        2.20727736       8.22283464       7.15852417       0.00099307       0.00014094      -0.00455641
C        3.66318637       8.10708502       7.24752059       0.00458179      -0.00059921      -0.00251004
C       -0.06131468       7.76906988       8.03421744       0.00076142       0.00148840       0.00114240
O        4.12976733       7.47771524       8.26539298       0.01161363       0.00179727      -0.00509856
C       -2.22156644       7.16939844       9.00641009       0.00766929       0.00173475       0.00443773
H       -2.80353639       6.67313230       9.78129633      -0.01344164       0.00170822      -0.01217467
C       -2.89367357       7.85150358       7.97467388       0.01098450       0.00889130       0.00481342
C       -4.37931998       7.88567338       7.94377093      -0.00228083      -0.00087343       0.00814092
C       -0.83874349       7.13057691       9.03536214       0.00888700      -0.00250567       0.00842860
H       -0.31416668       6.60217154       9.83296388      -0.01095311      -0.01256243       0.01779013
O       -4.96831332       7.21715911       8.85858622      -0.00869647       0.00099692      -0.01771913
C       -2.14066593       8.49914801       6.98166192       0.00939331       0.00324630       0.00123765
H       -2.65973595       9.03632397       6.18944609      -0.01329520      -0.01123277       0.00459387
C       -0.75237816       8.46168730       7.00286752       0.00739199       0.00441747      -0.00332494
H       -0.17735236       8.96680330       6.22672933      -0.00833659       0.00608921      -0.01311915
O       -4.91834350       8.57515710       7.01414813      -0.01694590       0.00071003       0.00963682
C        1.38491159       7.69849475       8.08342281      -0.00444845       0.00454070      -0.00809042
O        4.34825872       8.63952537       6.30053231       0.01096232      -0.00180081       0.00161689
H        1.83529762       8.75462197       6.28618178       0.01037369       0.00696793      -0.00466132
H        1.80239608       7.16697796       8.94291689      -0.00001875       0.00585362      -0.01289364
C       -2.19482847      22.07122583      23.13996384      -0.00219125       0.00071071      -0.00000267
C       -3.65057342      22.21014817      23.06772713      -0.00255675      -0.00283195       0.00089861
C        0.07136424      22.61210684      22.29782586      -0.00178555      -0.00077734       0.00016631
O       -4.10653951      22.91951797      22.09920707      -0.00466038      -0.00287083       0.00197383
C        2.22291663      23.28695298      21.35641978      -0.00127658      -0.00096757      -0.00046814
H        2.80334543      23.84231831      20.62154729      -0.00153582      -0.00147550      -0.00090443
C        2.90184552      22.52346966      22.32392184      -0.00035438       0.00013849      -0.00075873
C        4.38772223      22.48028819      22.33958810       0.00025553       0.00076705      -0.00121070
C        0.83996787      23.32980670      21.34290657      -0.00131441      -0.00151460       0.00032085
H        0.31179634      23.92254265      20.59380319      -0.00040569      -0.00168737       0.00001452
O        4.97965192      23.17546679      21.44825493       0.00085298       0.00086430      -0.00071231
C        2.15775054      21.80464781      23.27351960      -0.00035025       0.00054898      -0.00050071
H        2.68569477      21.21369848      24.02015267       0.00184745       0.00148319      -0.00133820
C        0.76961823      21.84177254      23.26734378      -0.00060043       0.00003670       0.00023451
H        0.20243430      21.27900005      24.00921652       0.00122443      -0.00024409       0.00131004
O        4.92304628      21.75313809      23.24228811       0.00097935       0.00087766      -0.00162743
C       -1.37484723      22.68331294      22.26821945      -0.00191044      -0.00017268      -0.00090218
O       -4.33920313      21.61907402      23.97396075       0.00041896      -0.00698136       0.00030161
H       -1.82375267      21.45012848      23.95153534      -0.00526729       0.00177730       0.00207154
H       -1.79764164      23.29459759      21.46678911      -0.00196051      -0.00106099      -0.00181656
C        2.66549439      23.16096333       6.81665849      -0.00018324      -0.00093163      -0.00060255
C        4.12423705      23.23343184       6.91075238      -0.00022904      -0.00090434      -0.00043855
C        0.41393845      23.40391013       7.81821786       0.00017138       0.00029730      -0.00122083
O        4.61149781      23.67477354       8.01444684      -0.00033251      -0.00022389      -0.00063015
C       -1.72578503      23.68827426       8.96659890       0.00132233       0.00069771      -0.00021945
H       -2.29596619      23.95520419       9.85495324      -0.00042819       0.00141120      -0.00151368
C       -2.41811275      23.28071021       7.81146662       0.00202707      -0.00111461       0.00027600
C       -3.90383622      23.21651517       7.80504526       0.00209377      -0.00298681       0.00051745
C       -0.34281414      23.74907803       8.96995339       0.00113782       0.00077601      -0.00052688
H        0.19512479      24.06569445       9.86545461       0.00036846       0.00083191      -0.00003884
O       -4.49242611      23.59881917       8.87202028       0.00005629      -0.00536034       0.00012638
C       -1.68660876      22.93433020       6.66437701       0.00084622       0.00007851      -0.00102344
H       -2.22470036      22.61702704       5.77253216      -0.00021205       0.00078845      -0.00076399
C       -0.29894216      22.99155901       6.65910090       0.00068128       0.00046595      -0.00182848
H        0.25639868      22.71914055       5.76135182       0.00018670       0.00060955      -0.00232538
O       -4.45175479      22.78559118       6.73366419       0.00598622      -0.00294203      -0.00142155
C        1.86099863      23.47478786       7.84688675      -0.00019090      -0.00037821      -0.00078235
O        4.79658857      22.85110688       5.88448658      -0.00046044      -0.00165540      -0.00033879
H        2.27957906      22.82012591       5.85899362      -0.00055765      -0.00140860      -0.00033310
H        2.29812555      23.81073383       8.79078773      -0.00092130      -0.00051509      -0.00046948
C       -2.68202452       7.36126826      23.55596949       0.00204003       0.01431151       0.00629999
C       -4.14201677       7.30160621      23.45069167       0.00823786       0.00261555       0.01269932
C       -0.42322199       6.99200078      22.60005122      -0.00956245       0.00088879      -0.00672702
O       -4.61893355       6.78607401      22.37538162       0.02470444       0.01154162      -0.00333350
C        1.70471281       6.65634135      21.44535316       0.00304487      -0.00235695      -0.00282310
H        2.26667506       6.36300280      20.56041495       0.00325794       0.00225797      -0.00843336
C        2.40736511       7.09464015      22.58207841      -0.00277320       0.00260379       0.00120208
C        3.89152923       7.17644326      22.56635842      -0.00500294       0.00160897       0.00425039
C        0.32220876       6.60134834      21.45586142       0.00095395      -0.00136597      -0.00161755
H       -0.22513433       6.25974239      20.57539938       0.00297002       0.00263373      -0.00441595
O        4.47293793       6.85312740      21.47541303      -0.00545277      -0.00730333       0.00696142
C        1.68757956       7.46173149      23.73054888      -0.00242110      -0.00058250       0.00401496
H        2.23702956       7.78719380      24.61235430      -0.00578617       0.00566565       0.00772579
C        0.29915982       7.41717313      23.74821930      -0.00391754      -0.00342775      -0.00443940
H       -0.24962031       7.70835790      24.64454677      -0.00087985       0.00124768      -0.00430172
O        4.44966564       7.56713546      23.64873830      -0.00498266       0.00438379       0.00286145
C       -1.87102804       6.95486439      22.56402141      -0.01495882       0.00129007      -0.00371114
O       -4.82028770       7.76650946      24.43743703      -0.01178566       0.00089002      -0.00085188
H       -2.29866926       7.77817908      24.48382846       0.00615000      -0.00147455       0.01320852
H       -2.30212185       6.56989584      21.63654023      -0.02634101      -0.00463962      -0.00133070
C        6.85138926       2.78949232       7.35164547      -0.00120314      -0.00355551       0.00151807
C        6.95068518       4.24833588       7.27352586      -0.00127328      -0.00440757       0.00036335
C        7.80560058       0.52791318       7.02474760       0.00080395      -0.00022188       0.00049202
O        8.02054896       4.72925022       6.75145823      -0.00101096      -0.00315987       0.00213534
C        8.91144358      -1.62115823       6.65556785       0.00047388       0.00084802      -0.00002328
H        9.76799735      -2.19909766       6.31239356       0.00052305       0.00112226      -0.00016090
C        7.79684934      -2.30307559       7.17758222       0.00015815       0.00097776      -0.00018241
C        7.78918388      -3.78861239       7.25557653      -0.00001637       0.00074977      -0.00049178
C        8.91541158      -0.23901110       6.57953441       0.00083313       0.00067078       0.00024950
H        9.77968427       0.29022151       6.17403226       0.00052995       0.00129891       0.00058693
O        8.82260428      -4.38429086       6.80020861       0.00034206       0.00113174      -0.00043360
C        6.68901708      -1.56158007       7.61841362      -0.00000457       0.00080283      -0.00004703
H        5.82692910      -2.09150076       8.02036375      -0.00022008       0.00105212      -0.00023996
C        6.68476642      -0.17439293       7.54697285       0.00031821       0.00055834       0.00021850
H        5.81776670       0.38846929       7.89366109       0.00052143       0.00080366       0.00013856
O        6.74989056      -4.32483858       7.76963430      -0.00034040       0.00083993      -0.00083836
C        7.83978506       1.97438669       6.94460572       0.00046704      -0.00093397       0.00112380
O        5.95816634       4.92084621       7.73361263      -0.00316128      -0.00584253      -0.00126130
H        5.92338838       2.41218325       7.77460783      -0.00138436      -0.00368693       0.00148944
H        8.75182554       2.40175681       6.51998078      -0.00026616       0.00110209       0.00163191
C       23.60222166      -2.75239500      23.03546532      -0.00731445      -0.00355941       0.00107797
C       23.48720655      -4.21029720      23.08162161      -0.00371597      -0.00182916       0.00029501
C       22.65303746      -0.49575089      23.40547763       0.00759056       0.00017565       0.01066746
O       22.39984753      -4.68754806      23.57158994      -0.00310473      -0.00125981       0.00332988
C       21.53369002       1.64964828      23.74720136       0.00322224       0.00378757      -0.00946854
H       20.66475255       2.22961827      24.05464464      -0.01260025      -0.01231865      -0.01982154
C       22.66841774       2.33060678      23.26987416       0.00806346       0.00889092       0.00220074
C       22.65588515       3.80797707      23.11652661      -0.01219206       0.00374582       0.00831048
C       21.52682446       0.26759156      23.81563881       0.00134673       0.00180650       0.00276600
H       20.64653646      -0.26318534      24.18241212      -0.00491005      -0.01307111      -0.01158550
O       21.54343812       4.39765214      23.33875989      -0.01228996      -0.02969680       0.03702647
C       23.81227057       1.59673075      22.92219594       0.00289377       0.00201837      -0.00495554
H       24.70323553       2.13443912      22.60225782       0.00618568      -0.01430541      -0.02235990
C       23.80907587       0.20932525      22.97261488       0.00757056       0.00209692       0.00595639
H       24.69612491      -0.35170411      22.67811308       0.00476284      -0.00115099      -0.00293908
O       23.75510616       4.35746562      22.76458767      -0.00953112      -0.00141262      -0.01255406
C       22.60530598      -1.94286255      23.43353564       0.00199414      -0.00244372       0.00327200
O       24.47983932      -4.88789780      22.62990690      -0.00101293       0.00467988      -0.00238699
H       24.54294863      -2.37499559      22.64120246      -0.01016942       0.00954811       0.00578224
H       21.67280213      -2.37570256      23.80445906      -0.00033589      -0.00233620       0.00417668
C        7.21131055       2.21392567      22.02915383       0.00280065      -0.00089752       0.00097670
C        7.27904801       3.66577766      22.20683718       0.00130492      -0.00086064      -0.00016875
C        8.08239609      -0.05889097      22.49971542       0.00196144      -0.00013421       0.00310061
O        8.20759962       4.10029404      22.98095334      -0.00008877       0.00132611      -0.00000914
C        9.04885146      -2.21057988      23.13568497       0.00221393      -0.00033838       0.00246284
H        9.79538015      -2.79073336      23.67533236       0.00206900      -0.00038684       0.00224154
C        8.07052089      -2.88871322      22.38616786       0.00271966      -0.00040595       0.00243353
C        8.05016172      -4.37560587      22.35587602       0.00271341      -0.00069606       0.00166992
C        9.05669020      -0.82833048      23.18894700       0.00161962      -0.00053448       0.00259937
H        9.81416613      -0.30124330      23.77173851       0.00166601      -0.00153724       0.00276901
O        8.92054411      -4.96231809      23.08251863       0.00229713      -0.00218668       0.00078502
C        7.11156276      -2.14299114      21.68037817       0.00260687      -0.00053510       0.00293139
H        6.36236163      -2.67046669      21.09203413       0.00329144      -0.00202191       0.00354324
C        7.10947305      -0.75459844      21.73090399       0.00220220      -0.00060953       0.00307002
H        6.35778774      -0.18485888      21.18334509       0.00168930      -0.00187808       0.00283447
O        7.16538875      -4.91561516      21.61163773       0.00291782      -0.00124449       0.00179561
C        8.09880330       1.38521567      22.60487353       0.00227469      -0.00011029       0.00323308
O        6.41083149       4.37046100      21.58061869       0.00144157      -0.00257816      -0.00233658
H        6.40095103       1.85515960      21.39918138       0.00322591       0.00164477      -0.00115548
H        8.90500511       1.79977062      23.21542801       0.00174350       0.00047658       0.00411185
C       23.03566406      -2.20942500       8.31022105       0.00140424       0.00169024       0.00044016
C       22.96627014      -3.66541148       8.16772076       0.00239369       0.00099643       0.00209652
C       22.20559699       0.06062664       7.77099736      -0.00266471      -0.00610072      -0.00432538
O       22.02319313      -4.12347459       7.42667271       0.00169487      -0.00119469       0.00478620
C       21.26989752       2.21579370       7.09555996       0.00182428      -0.00957002       0.00513304
H       20.52704768       2.79728725       6.55176174       0.01039559       0.00656701       0.00756584
C       22.26729395       2.89112995       7.82419281       0.00551920      -0.02427056       0.01040281
C       22.31071065       4.37523281       7.85582725       0.00273842      -0.01584925       0.00924868
C       21.23790657       0.83233345       7.07419405      -0.00062084      -0.00474632      -0.00094407
H       20.46519473       0.30177528       6.51457550      -0.00379077       0.01786949      -0.00764779
O       21.43514394       4.98021875       7.15334464      -0.00825126      -0.02015143       0.00952966
C       23.22476802       2.14402135       8.52839525       0.00678304      -0.02038513       0.00802346
H       23.99149544       2.66848363       9.09629250      -0.00112216       0.00322083      -0.00399286
C       23.20305836       0.75612434       8.50744418      -0.00312280      -0.01657333      -0.00262913
H       23.95540677       0.18890752       9.05603395      -0.00344131      -0.00637737      -0.00321535
O       23.22195396       4.89425189       8.58522084      -0.01140676       0.01871884      -0.01654058
C       22.16107602      -1.38589030       7.70737845       0.00193552       0.00041676      -0.00066655
O       23.85349583      -4.35012233       8.79030973       0.00085994      -0.00452220      -0.00222098
H       23.84601762      -1.84096478       8.93462385       0.00099724      -0.00165924       0.00167020
H       21.34722458      -1.80542181       7.11006702       0.00485784       0.00041589       0.00293562
C        7.79656503      22.06484760      17.35322085      -0.00006536       0.00076972      -0.00113986
C        7.80996002      22.18072616      18.81151355       0.00003509       0.00075025      -0.00113843
C        7.34979803      23.00493846      15.10811074      -0.00046620       0.00045574      -0.00092368
O        7.33445191      23.26259317      19.31332724      -0.00002360       0.00054827      -0.00080656
C        6.87029797      24.09354726      12.97199872       0.00015480       0.00048290      -0.00083178
H        6.49955062      24.94577347      12.40484145       0.00039016       0.00049436      -0.00086876
C        7.35922801      22.97381260      12.27437830       0.00014372       0.00044233      -0.00072901
C        7.39052154      22.96122896      10.78762463       0.00027220       0.00029055      -0.00079087
C        6.86543911      24.10880871      14.35628084      -0.00016436       0.00046499      -0.00090480
H        6.48936305      24.97784523      14.89937869      -0.00008832       0.00044602      -0.00092321
O        6.90673482      23.98640544      10.19859149       0.00027049       0.00010123      -0.00110708
C        7.83084912      21.86903869      13.00139986      -0.00013513       0.00039878      -0.00066219
H        8.20481463      21.00190103      12.45939708      -0.00013219       0.00038302      -0.00057737
C        7.82917357      21.87534658      14.38985210      -0.00046077       0.00035941      -0.00072065
H        8.20146112      21.01138463      14.94078866      -0.00070440       0.00033456      -0.00065740
O        7.90250951      21.92621898      10.24232207       0.00034215       0.00038817      -0.00090950
C        7.35380919      23.05234273      16.55586920      -0.00058384       0.00058020      -0.00100722
O        8.29732112      21.18864582      19.46774698       0.00022335       0.00078560      -0.00126042
H        8.18212288      21.12678327      16.96098210       0.00035044       0.00075015      -0.00084395
H        6.96533492      23.97255175      16.99958584      -0.00100069       0.00036587      -0.00084197
C       23.04103327       7.19456317      18.10009978       0.00070188      -0.00584077      -0.02005361
C       22.95752979       7.28070480      19.56001074      -0.00197357      -0.00111161      -0.02456944
C       22.64601676       8.13582349      15.84239032      -0.00204601       0.00446007       0.00393085
O       22.42671221       8.34211808      20.04781018      -0.00162163       0.00634709      -0.02955046
C       22.15017629       9.20633483      13.70111149       0.00127143      -0.00315418       0.00791164
H       21.77041873      10.05321450      13.13141504       0.00396694      -0.00929219      -0.00172425
C       22.62204918       8.07497006      13.01018029      -0.00051472      -0.00409687       0.00959601
C       22.57434346       8.02611391      11.52715084       0.00270110      -0.00487051      -0.00417362
C       22.16386438       9.23595313      15.08455443      -0.00288072       0.00679140       0.00866317
H       21.79614714      10.11088984      15.62309510      -0.00591224       0.01130026       0.00163148
O       23.07852703       6.99259999      10.97001642      -0.01063696       0.00972105      -0.02366401
C       23.11997347       6.98477784      13.74127615       0.00063367      -0.00138298       0.01460270
H       23.49365498       6.11409403      13.20444957      -0.00392596       0.00857125      -0.00270934
C       23.13415358       7.00703220      15.12975386       0.00268828      -0.00471907       0.01572773
H       23.51689468       6.15333588      15.68863472       0.00881044      -0.01894286      -0.00247077
O       22.02695603       9.02444459      10.94575816       0.00873788      -0.00106755      -0.01000714
C       22.62127795       8.18196996      17.29062053      -0.00515333       0.01289228      -0.00402096
O       23.42066630       6.28175183      20.22034533      -0.00798845       0.00324136      -0.01094117
H       23.47173635       6.27371642      17.71473127       0.00695431      -0.01371626       0.00520059
H       22.21960179       9.10037206      17.72562641      -0.00559727       0.00863995       0.00456570
C       22.58876816      22.55137260      12.76939095       0.00011348      -0.00102733       0.00226342
C       22.67895557      22.72064298      11.31734064       0.00104020      -0.00141380       0.00218989