520
Lattice="30.375065616764854 0.0 0.0 0.0 30.375065616764854 0.0 0.0 0.0 30.375065616764854" Properties=species:S:1:pos:R:3:forces:R:3 energy=-3497.336391819637 stress="-2.4984922244856793e-05 4.854120023661428e-06 1.0659411282541563e-05 4.854120023661428e-06 -4.7128631191949415e-05 2.4566838203219376e-06 1.0659411282541563e-05 2.4566838203219376e-06 -7.775390607705915e-06" pbc="T T T"
C        7.34697877       8.02106232       2.37916104      -0.00220593      -0.00163471       0.00096119
C        7.39753659       7.95188311       3.84078383      -0.00342051       0.00048248      -0.00037119
C        7.61954910       7.00155989       0.14198935       0.00230950      -0.00200774      -0.00123055
O        7.81904242       6.85729694       4.36217147       0.00142251      -0.00066380      -0.00586902
C        8.00293487       5.86917835      -1.99154205       0.00379610      -0.00443804      -0.00643739
H        8.34429434       5.00530656      -2.55900616       0.00507898      -0.01067664      -0.00096720
C        7.50696356       6.98454163      -2.69023978      -0.00093370      -0.00349825      -0.00476374
C        7.44548548       6.99218521      -4.17564523      -0.00415480      -0.00338722      -0.00280535
C        8.05484734       5.87579805      -0.60778298       0.00464293       0.00157315      -0.00562554
H        8.43881845       5.01062929      -0.06372834      -0.00366411       0.00232928       0.00007394
O        7.94725704       5.98915224      -4.78728965       0.00540569      -0.00472644       0.00550917
C        7.06514925       8.10251275      -1.96511719       0.00269429       0.00152355      -0.00486361
H        6.67621873       8.96249105      -2.50771653      -0.00116575       0.00729573       0.00291314
C        7.11971447       8.12121939      -0.57804579       0.00410898      -0.00188947      -0.00330790
H        6.77576432       8.99989291      -0.03198249      -0.00025215      -0.00907973       0.00597988
O        6.89035837       8.01648669      -4.70208818       0.00771946       0.00877866       0.00959200
C        7.68999500       6.98897172       1.58913035       0.00663370      -0.00000498       0.00195868
O        7.01355834       8.99978677       4.47863837      -0.00229424       0.00213521      -0.00207611
H        7.00610380       8.97151005       1.97495157      -0.00310067       0.00157129       0.01073840
H        8.05815822       6.06247989       2.03677739      -0.00265104      -0.00248455       0.00869698
C       22.85338531      23.50362843       2.72685437       0.00072749       0.00089323       0.00119842
C       22.94682829      23.42168893       4.18515211       0.00091049       0.00050842       0.00144473
C       23.20776316      22.53136506       0.47674758       0.00015994       0.00025858       0.00049139
O       23.48567641      22.36009961       4.66906041       0.00252445       0.00050037      -0.00003367
C       23.61623195      21.41253666      -1.65779745      -0.00182848       0.00080442      -0.00049819
H       23.95833613      20.54774790      -2.22403333      -0.00092934       0.00057998       0.00095610
C       23.14194604      22.53831571      -2.35603387      -0.00378798      -0.00000538      -0.00102272
C       23.10435231      22.54188969      -3.84262349      -0.00546590       0.00121649      -0.00080884
C       23.64641738      21.40808083      -0.27413978       0.00024015       0.00027710      -0.00023477
H       24.01118540      20.53402774       0.26850077       0.00172236       0.00122460       0.00132554
O       22.58960666      23.57158572      -4.39629949      -0.00018679       0.00392022      -0.00011613
C       22.70512594      23.65807524      -1.63033271      -0.00233772      -0.00090865       0.00054047
H       22.34057624      24.52832266      -2.17379992      -0.00262371      -0.00065695       0.00191823
C       22.73356765      23.66302314      -0.24176534      -0.00067407       0.00021887       0.00066229
H       22.39181870      24.53905450       0.31005786       0.00033343       0.00109767       0.00071006
O       23.59034477      21.51280510      -4.42114826      -0.00992083      -0.00171500       0.00101633
C       23.25478832      22.50272097       1.92438192       0.00131162       0.00067460       0.00121247
O       22.48694003      24.41424595       4.85724942      -0.00059172       0.00055489       0.00038106
H       22.42574077      24.42531117       2.33969483      -0.00038870       0.00044079      -0.00005548
H       23.65231718      21.58436238       2.36413556       0.00253286       0.00038006       0.00056514
C       22.06269473       7.13456572      -2.27055413      -0.00021435       0.00210660       0.00070503
C       22.22277608       7.21881412      -3.72412482       0.00116325       0.00257584       0.00106611
C       22.52964340       8.00493044       0.00489657       0.00128897       0.00180408       0.00080265
O       22.93963234       8.19081887      -4.16191050       0.00481961      -0.00010719       0.00078876
C       23.14641670       8.98725072       2.15537355       0.00175059       0.00227936       0.00000274
H       23.66905053       9.74725138       2.73363120       0.00207550       0.00270795      -0.00051804
C       22.42015416       7.99307473       2.83569566       0.00115367       0.00198222      -0.00027538
C       22.38611887       7.98082713       4.32232142       0.00072912       0.00205793      -0.00040961
C       23.19779185       8.99483553       0.77305910       0.00196341       0.00206088      -0.00003369
H       23.76173195       9.76601918       0.24542335       0.00195262       0.00134026      -0.00139366
O       23.10085123       8.86567852       4.90315880       0.00016420       0.00238292      -0.00015867
C       21.74079728       7.01399264       2.09198075       0.00101432       0.00149585       0.00014597
H       21.17340604       6.25072855       2.62220074       0.00045433       0.00069885      -0.00133579
C       21.79005746       7.01136088       0.70328723       0.00146723       0.00178180       0.00029832
H       21.26236571       6.24440999       0.13512456       0.00216053       0.00238052      -0.00104119
O       21.65231759       7.09234966       4.87100175       0.00089411       0.00179223      -0.00049745
C       22.62391889       8.02994687      -1.44023142      -0.00009717       0.00123493       0.00100015
O       21.63932730       6.32084132      -4.42889141      -0.00221774       0.00478342       0.00087105
H       21.46360506       6.30098104      -1.91209502      -0.00076269       0.00381930       0.00327516
H       23.21195889       8.85286176      -1.85503391      -0.00071654       0.00061427       0.00030294
C        8.29898438      23.16412600       2.19759741       0.00219840      -0.00248122      -0.00793510
C        8.11418680      23.09778040       3.64923226       0.00557770       0.00732695      -0.00294219
C        7.82740111      22.32965514      -0.08726656      -0.00042189      -0.00214281      -0.00542032
O        7.33733960      22.17414334       4.08895541       0.00886074       0.00954378       0.00599387
C        7.21382168      21.38729908      -2.25575008      -0.00911897      -0.01255127       0.00528854
H        6.68169465      20.64640664      -2.84931375      -0.01268790      -0.01612954       0.00659971
C        7.96975161      22.37092008      -2.91778351      -0.00553310      -0.00752467       0.01253894
C        8.00997427      22.39476292      -4.40361848      -0.00108150      -0.00107644       0.00219536
C        7.14326616      21.36596137      -0.87457881      -0.00126636      -0.00181669       0.00401422
H        6.55130370      20.60286807      -0.36617394       0.00398758       0.00717692       0.01327075
O        7.29817599      21.50757149      -4.98470024       0.00448273       0.01391065      -0.03098609
C        8.66551167      23.32363963      -2.15610180       0.00222452       0.00194416       0.00421301
H        9.25449765      24.07930501      -2.67310753       0.00567619       0.00412723       0.00404235
C        8.60403598      23.30847958      -0.76781641      -0.00191187      -0.00103585       0.00221571
H        9.14945277      24.05264473      -0.18627560      -0.00703201      -0.00212599       0.00180852
O        8.74003313      23.28856893      -4.94769406      -0.00438796      -0.01141891      -0.00125898
C        7.71088535      22.29658824       1.35643827       0.00086245      -0.00287051      -0.00840598
O        8.74156016      23.96934936       4.34956621      -0.00141094       0.00431437       0.00648583
H        8.94570039      23.96456096       1.84613696       0.00369332       0.00186743       0.00508097
H        7.08422451      21.49562927       1.75753314       0.00294061       0.00376850       0.00510477
C        2.21829273       8.23028843       7.14694942       0.00013845       0.00193188      -0.00061633
C        3.67381479       8.10834262       7.23571831       0.00003523       0.00108341      -0.00019925
C       -0.04908329       7.78156714       8.03428689       0.00025626       0.00037528      -0.00095352
O        4.13799927       7.48333866       8.25728683       0.00054262       0.00045061      -0.00083219
C       -2.20655029       7.17575277       9.00852033       0.00121657      -0.00035098       0.00027668
H       -2.79103832       6.67502622       9.77859073       0.00190628      -0.00048042       0.00064694
C       -2.87984485       7.85814343       7.97856629       0.00034577      -0.00076137       0.00051609
C       -4.36536040       7.88160313       7.94206007       0.00049364      -0.00093672       0.00118263
C       -0.82360522       7.14068720       9.03769689       0.00121524       0.00024670      -0.00037496
H       -0.30049970       6.61089861       9.83586059       0.00243236       0.00088215      -0.00072846
O       -4.95767441       7.19970599       8.84430145       0.00077080      -0.00138167       0.00102465
C       -2.13028891       8.50963039       6.98594050      -0.00044010      -0.00064361       0.00004097
H       -2.65454785       9.04328391       6.19486667      -0.00010864      -0.00073131      -0.00018883
C       -0.74210254       8.47635623       7.00534748      -0.00050572      -0.00015186      -0.00057768
H       -0.17063087       8.98428711       6.22802266      -0.00080838      -0.00017144      -0.00072623
O       -4.90337955       8.57670184       7.01580104       0.00020026      -0.00050001       0.00172033
C        1.39684521       7.70934764       8.07475219       0.00019479       0.00107126      -0.00119512
O        4.36051885       8.63242890       6.28535456       0.00162032       0.00068346       0.00060219
H        1.84921428       8.76430395       6.27464211      -0.00155992       0.00106853      -0.00050161
H        1.81783951       7.17696312       8.93158354      -0.00045060       0.00058004      -0.00130949
C       -2.18658961      22.06620705      23.12975049       0.00506490       0.00447525      -0.00588413
C       -3.64232296      22.20121603      23.05423193       0.00288202      -0.00235797       0.00283416
C        0.08071110      22.61952458      22.29953814       0.00429771      -0.00442344       0.00321854
O       -4.10080878      22.91375317      22.08933605      -0.00422815      -0.00682751       0.00381380
C        2.23656295      23.30167426      21.37168457      -0.00569531      -0.00134686      -0.00333202
H        2.81866550      23.86524504      20.64441720       0.00523775      -0.00793906      -0.00083111
C        2.91193690      22.52625177      22.33297673      -0.00755342       0.00122966      -0.00022918
C        4.39732598      22.47069000      22.35065917      -0.00068386       0.01158135      -0.00909937
C        0.85338752      23.34497658      21.35313217      -0.00344657      -0.00444452       0.00527008
H        0.32795860      23.94359640      20.60638893       0.00350963      -0.00546974       0.00617522
O        4.99130534      23.15512162      21.45277565       0.02338019       0.00493517       0.01110145
C        2.16409893      21.80490345      23.27606221      -0.00071310      -0.00540783       0.00619993
H        2.69298182      21.21068457      24.01902031      -0.01496659      -0.01229248       0.01447423
C        0.77603526      21.84347751      23.26678989       0.00127607      -0.00239455       0.00315327
H        0.20757545      21.27627432      24.00427016      -0.00221096       0.00160102      -0.00122164
O        4.92958808      21.74638003      23.25835135       0.01948058       0.01283842      -0.02077113
C       -1.36570326      22.68694245      22.26483956       0.00870735      -0.00035365      -0.00331831
O       -4.32789750      21.60208062      23.95705797      -0.00403811       0.00282538       0.00069542
H       -1.81815766      21.44062389      23.93946575       0.00109705       0.00701209      -0.00603884
H       -1.78722967      23.30165117      21.46519030      -0.00215997      -0.00282607       0.00343543
C        2.66609533      23.17323253       6.83007503      -0.00012451       0.00003602      -0.00238379
C        4.12370707      23.24827366       6.92781166       0.00135928      -0.00200180      -0.00510529
C        0.41299948      23.40262895       7.82643829      -0.00094187       0.00017599      -0.00059666
O        4.60925403      23.67933772       8.03600832       0.00079485      -0.00058525      -0.00531994
C       -1.73108526      23.67992310       8.96664067      -0.00087153       0.00027617       0.00063854
H       -2.30553013      23.94695353       9.85214750      -0.00113031       0.00016492       0.00063576
C       -2.41740210      23.26464377       7.81066123      -0.00094670       0.00065386       0.00053465
C       -3.90269665      23.19428204       7.80062951      -0.00033074       0.00041860       0.00043049
C       -0.34869070      23.74839200       8.97444799      -0.00075386      -0.00002367       0.00003430
H        0.18484351      24.07153767       9.87025853      -0.00052879      -0.00015832       0.00001662
O       -4.49397933      23.55483714       8.87395807      -0.00030388       0.00071067       0.00026814
C       -1.68075011      22.91886816       6.66665113      -0.00185004       0.00084365       0.00009207
H       -2.21425652      22.59686437       5.77375600      -0.00220225       0.00128184       0.00007613
C       -0.29349368      22.98284340       6.66593510      -0.00188340       0.00069877      -0.00025524
H        0.26639715      22.70980932       5.77114639      -0.00284478       0.00101070      -0.00089504
O       -4.44858331      22.78094500       6.72129882       0.00029495      -0.00024265       0.00039623
C        1.85905034      23.47998948       7.86020356      -0.00016353      -0.00011159      -0.00193286
O        4.79753558      22.87811469       5.89777799       0.00257854      -0.00451965      -0.00273006
H        2.28389230      22.83852000       5.86882776      -0.00347241      -0.00181426      -0.00045550
H        2.29255885      23.81490691       8.80609461      -0.00072641      -0.00084567      -0.00124396
C       -2.67831544       7.39888460      23.51932382      -0.01029812      -0.00934912       0.00687128
C       -4.13650418       7.33868434      23.41585915      -0.00588062      -0.00415342       0.00355195
C       -0.42636683       6.96549491      22.59011142      -0.00406571       0.00845637      -0.00294963
O       -4.61449618       6.84463399      22.32991846       0.00101033      -0.00932997       0.00332314
C        1.71284311       6.62014700      21.46350772       0.00955035       0.00520140       0.00363358
H        2.28829712       6.32984611      20.58585945      -0.00957485      -0.00863708      -0.00326419
C        2.39981566       7.08060044      22.60151546       0.01371174       0.01137119      -0.00200918
C        3.88027114       7.20193695      22.58841762       0.00543294      -0.00525400       0.00125423
C        0.33133195       6.54690514      21.46344983       0.00562191       0.01109330      -0.00057857
H       -0.20274431       6.17763791      20.58591500      -0.00999805       0.01820069       0.00248053
O        4.47033718       6.90679737      21.49438930      -0.02146942       0.00024015      -0.01133902
C        1.66956468       7.44325404      23.74431552       0.00550572       0.00348893      -0.00562177
H        2.20681903       7.77747412      24.63051954       0.00201742      -0.00111002      -0.00359090
C        0.28242860       7.39182302      23.74674157       0.00276616       0.00435318      -0.00482377
H       -0.27420886       7.68664463      24.63681084      -0.00606244      -0.00148335      -0.00618002
O        4.42817883       7.59883896      23.67339163      -0.00995404      -0.01723990       0.01155022
C       -1.87275569       6.96555246      22.53440229      -0.01026373      -0.00934483       0.00133404
O       -4.81510417       7.77620448      24.41402112       0.00307593       0.00664212       0.00449405
H       -2.29228689       7.82197328      24.44363497      -0.01048528      -0.00482676       0.00132178
H       -2.30696790       6.58980454      21.60455999      -0.00917704      -0.00983051       0.00058272
C        6.84536698       2.78407902       7.35094124      -0.00107773      -0.00020984      -0.00095054
C        6.94361955       4.24296030       7.27258612      -0.00089059       0.00024678      -0.00056417
C        7.79607271       0.52233392       7.01819887       0.00102728       0.00092734       0.00082216
O        8.01465937       4.72801922       6.75648310      -0.00132792      -0.00156299      -0.00407271
C        8.90549439      -1.62640397       6.65924522       0.00032332       0.00140195      -0.00119395
H        9.76288206      -2.20506427       6.31941479       0.00070233       0.00306916      -0.00263033
C        7.79228399      -2.30712653       7.18538804       0.00063199       0.00006889      -0.00210157
C        7.78631511      -3.79213983       7.26872080       0.00157229      -0.00034319      -0.00329686
C        8.90658795      -0.24482823       6.57501583       0.00064771       0.00149619       0.00095214
H        9.76937665       0.28342741       6.16510506      -0.00000334       0.00335730       0.00262368
O        8.80954313      -4.38897125       6.79241086       0.00369618      -0.00139807       0.00393382
C        6.68281622      -1.56580694       7.62229914       0.00110457       0.00054281      -0.00050052
H        5.82250067      -2.09574802       8.02805564      -0.00058953       0.00364914      -0.00011157
C        6.67512113      -0.17922870       7.54154174       0.00205165       0.00055143       0.00086049
H        5.80548919       0.38338395       7.88208564       0.00376243       0.00209205       0.00173722
O        6.75817728      -4.32530931       7.80709902      -0.00174805      -0.00079844      -0.01038759
C        7.83037934       1.96858895       6.93673909       0.00033597       0.00092752       0.00059997
O        5.94685404       4.91294984       7.72788449       0.00351088       0.00457639       0.00196591
H        5.91967893       2.40737425       7.77981086       0.00039128      -0.00452028      -0.00151353
H        8.73983793       2.39588322       6.50659531       0.00121147       0.00045765       0.00223200
C       23.63797113      -2.75715813      23.04765394      -0.00145301       0.00026916       0.00016549
C       23.51167606      -4.21430788      23.09395457      -0.00076115       0.00160098       0.00130210
C       22.69621477      -0.49385898      23.39618061      -0.00255920      -0.00134399      -0.00090213
O       22.42358324      -4.68434023      23.58968345       0.00006585       0.00102494       0.00209485
C       21.55663159       1.64692003      23.68929281      -0.00428640      -0.00128784       0.00043579
H       20.67428594       2.21932455      23.97048716      -0.00353513       0.00122994       0.00022755
C       22.69728340       2.33372179      23.23567228      -0.00378100      -0.00062515       0.00103479
C       22.68256504       3.81637948      23.12825091      -0.00165424       0.00026023       0.00206178
C       21.55766320       0.26609682      23.77318262      -0.00389947      -0.00169770      -0.00004345
H       20.67316344      -0.26771514      24.12506651      -0.00505258      -0.00108866       0.00033225
O       21.59194267       4.39493302      23.45840132      -0.00091528       0.00233929       0.00160688
C       23.84168896       1.60038150      22.88252235      -0.00377603      -0.00045968       0.00034339
H       24.72677107       2.13636633      22.54313136      -0.00444968       0.00144825       0.00075586
C       23.84953275       0.21325536      22.95756124      -0.00248510      -0.00067261      -0.00051540
H       24.74202239      -0.34714484      22.67715786      -0.00140407       0.00092602      -0.00117654
O       23.75533061       4.37325402      22.71390528      -0.00016728      -0.00206437       0.00223521
C       22.65084073      -1.94024156      23.45267507      -0.00061618      -0.00051609      -0.00198788
O       24.49647882      -4.89751319      22.63435390      -0.00035996       0.00280435       0.00060833
H       24.57616012      -2.38338726      22.64436021      -0.00092531       0.00139971       0.00291722
H       21.72528790      -2.36760419      23.84706997      -0.00244630       0.00413881      -0.00239951
C        7.13195738       2.23850358      21.97263939      -0.01064373      -0.00837942       0.01667247
C        7.19719742       3.68434716      22.19689148       0.02536202      -0.00527921      -0.01149431
C        8.01873415      -0.04216762      22.41960581       0.02959074       0.00254688       0.01039564
O        8.13736126       4.09896872      22.96966906      -0.00420955       0.04378962       0.00164833
C        9.00122866      -2.17401904      23.09177457      -0.01052945      -0.00447106       0.00121740
H        9.74928854      -2.73626748      23.64907452      -0.01939590      -0.01134798      -0.02101914
C        8.02625729      -2.86949938      22.35271365       0.00428524       0.02829245      -0.00576794
C        8.01300832      -4.35613367      22.35048768       0.02324355       0.04111407       0.00118875
C        9.00354950      -0.79171463      23.11620135      -0.00336348      -0.01806265       0.00776024
H        9.76241362      -0.25231061      23.68726497      -0.02570581      -0.00139009      -0.01280654
O        8.86669594      -4.92026519      23.11436920      -0.01800029      -0.05102066      -0.03199040
C        7.06735951      -2.14334356      21.62497388       0.00144063       0.02698782       0.01369688
H        6.32762866      -2.69207725      21.04258181       0.01197412       0.03530764       0.00788539
C        7.05384535      -0.75283811      21.65383672       0.01793823       0.01369856       0.02420619
H        6.30438713      -0.18540577      21.09897795       0.00221087      -0.04341964       0.00240743
O        7.15349614      -4.91390214      21.58984675       0.03021761      -0.00169260       0.04388020
C        8.02429542       1.40086115      22.52531122       0.02418871       0.01360943       0.01362863
O        6.31617647       4.40386205      21.60580973       0.03548676      -0.04009418       0.01292550
H        6.32124479       1.89457373      21.33598630      -0.01328401      -0.01431495      -0.00868688
H        8.83474626       1.81687090      23.12735296       0.03568740      -0.00070609       0.03200231
C       23.04696416      -2.23311311       8.32389792      -0.00016522      -0.00089886      -0.00109694
C       22.97769680      -3.68867229       8.18019929      -0.00028905      -0.00061287      -0.00095420
C       22.21308825       0.03487605       7.78231414      -0.00055144      -0.00078894      -0.00053663
O       22.02948274      -4.14465521       7.44424654      -0.00057247      -0.00028979      -0.00072842
C       21.26971126       2.18973992       7.12018631      -0.00085653      -0.00040666      -0.00005563
H       20.52275358       2.77285648       6.58417660      -0.00119544      -0.00069461       0.00006532
C       22.26860585       2.86540162       7.84488452      -0.00078499       0.00004962      -0.00042051
C       22.30744613       4.35082673       7.86932918      -0.00073098       0.00042704      -0.00029937
C       21.24245723       0.80662465       7.08958016      -0.00080769      -0.00056806      -0.00010301
H       20.47023753       0.28036680       6.52555093      -0.00103186      -0.00056564       0.00007782
O       21.40539891       4.95217112       7.19605365      -0.00041840       0.00043740      -0.00079722
C       23.23171269       2.11826821       8.54229191      -0.00068871      -0.00031253      -0.00089308
H       24.00123797       2.64403720       9.10517199      -0.00047864      -0.00047046      -0.00106834
C       23.21106057       0.73016364       8.51835946      -0.00051300      -0.00045395      -0.00091460
H       23.96519037       0.16149787       9.06300521      -0.00026448      -0.00044573      -0.00118582
O       23.24233403       4.87777775       8.56161450      -0.00115017       0.00061048       0.00007500
C       22.17270895      -1.41129148       7.71806287      -0.00047715      -0.00085839      -0.00056816
O       23.86861533      -4.37469501       8.79586914       0.00005723      -0.00012168      -0.00089475
H       23.85588745      -1.86495686       8.95033775      -0.00011723      -0.00091488      -0.00147128
H       21.36140022      -1.83241024       7.11883338      -0.00076341      -0.00080625      -0.00008355
C        7.80319176      22.06539897      17.36720471      -0.00166286      -0.00000009       0.00557984
C        7.80251958      22.16697313      18.82725307       0.00047947       0.00964975       0.00169558
C        7.35429613      23.00773259      15.12484708       0.00453494      -0.00512353      -0.00133975
O        7.33714584      23.25275323      19.32925619       0.00305288       0.01070643      -0.00337132
C        6.86115022      24.08477222      12.98548756       0.00151003       0.00013496       0.01092020
H        6.48315141      24.93347454      12.41721125       0.00761806      -0.00981080      -0.00058237
C        7.35360985      22.96436659      12.29064625      -0.00422512       0.00433452       0.00657937
C        7.38660244      22.95079090      10.80443188      -0.00025360       0.00028929       0.00304491
C        6.86282999      24.10648255      14.36995777       0.00419048      -0.00141943       0.00823058
H        6.48704115      24.97669855      14.91143618      -0.00094185       0.00073433      -0.00425273
O        6.89749602      23.97359014      10.21604408       0.00550061      -0.00111570      -0.00370293
C        7.82838387      21.86227143      13.01997433      -0.00236658       0.00825414       0.00321193
H        8.20170223      20.99217340      12.48155994      -0.00463851       0.01532389      -0.00125478
C        7.83146857      21.87577295      14.40835877       0.00327298      -0.00122445       0.00033832
H        8.20799708      21.01485189      14.96080671      -0.00051801      -0.00419779      -0.00444533
O        7.90584011      21.91924035      10.25967529      -0.00323510       0.00392364      -0.00655108
C        7.36645910      23.05891484      16.57331956      -0.00129407      -0.00820199      -0.00717493
O        8.26514960      21.16430505      19.48655299       0.01489462       0.01301163      -0.01036054
H        8.19146472      21.13191305      16.96691352      -0.00367794      -0.00358625       0.02245185
H        6.98851131      23.98397484      17.01716782       0.00049249      -0.01649665      -0.00173528
C       23.05090973       7.19277311      18.06399204      -0.00196805       0.00213248       0.00115421
C       22.96811959       7.28470957      19.52313378      -0.00374657       0.00141556       0.00068165
C       22.64699887       8.13035536      15.80790011      -0.00055363       0.00097951       0.00030921
O       22.44276637       8.35120899      20.00799711      -0.00934920      -0.00111405       0.00023199
C       22.15134862       9.20167198      13.66786791      -0.00008751       0.00115606       0.00105310
H       21.77331063      10.04807750      13.09676630      -0.00001813       0.00162409       0.00151237
C       22.62518761       8.07192902      12.97641652      -0.00012918       0.00043702       0.00159155
C       22.58493994       8.02776033      11.49241276      -0.00067356       0.00007529       0.00182011
C       22.16157741       9.23011001      15.05124553      -0.00012814       0.00140688       0.00096790
H       21.78964387      10.10395867      15.58924110       0.00104254       0.00107450       0.00251455
O       23.06443782       6.98192181      10.93701847      -0.00123327      -0.00024548       0.00194337
C       23.12069545       6.98032263      13.70708959      -0.00017697      -0.00002497       0.00137231
H       23.49259862       6.11073739      13.16759669       0.00013730      -0.00101759       0.00291079
C       23.13574729       7.00086353      15.09558756      -0.00045558       0.00065790       0.00125560
H       23.51970669       6.14522671      15.65169783      -0.00049661       0.00175696       0.00293721
O       22.06923230       9.04116239      10.90730608      -0.00075553       0.00022329       0.00200481
C       22.62526523       8.17837209      17.25537879      -0.00094471       0.00139552       0.00003866
O       23.42484511       6.28695380      20.18975900       0.00080253       0.00336749       0.00058959
H       23.48421078       6.27156933      17.68129766      -0.00214410       0.00198345       0.00228266
H       22.22148627       9.09629664      17.69021480      -0.00128071       0.00090997       0.00007026
C       22.57787533      22.54048285      12.77936072      -0.00003257       0.00008931      -0.00203825