520
Lattice="30.37701836964486 0.0 0.0 0.0 30.37701836964486 0.0 0.0 0.0 30.37701836964486" Properties=species:S:1:pos:R:3:forces:R:3 energy=-3497.3347138433037 stress="2.5060433685625803e-05 8.026472928377218e-06 3.2696663899587796e-06 8.026472928377218e-06 -3.5952080939850156e-05 -6.343879977802189e-06 3.2696663899587796e-06 -6.343879977802189e-06 -2.78365547288792e-05" pbc="T T T"
C        7.46066373       6.88762901      -2.80828428      -0.01154142      -0.00368423       0.00434328
C        7.49627170       7.03297436      -4.26535683      -0.00515939      -0.00175101       0.00037609
C        7.01741521       7.79854586      -0.54749568       0.00555015       0.00356874      -0.00195729
O        6.97367532       8.09905729      -4.75590318      -0.01418687       0.00249528       0.01648914
C        6.61974431       8.89269458       1.60270817      -0.00366024       0.00110333      -0.00405076
H        6.29836161       9.75806138       2.18004243      -0.00742225      -0.00283126       0.00029889
C        7.06875168       7.74794827       2.28651479      -0.00449831      -0.00130664      -0.00812810
C        7.10323522       7.72061597       3.77289978      -0.00280569      -0.00122304      -0.00416467
C        6.58949834       8.91601366       0.21882259       0.00394162      -0.00204201      -0.00336963
H        6.24081781       9.80432371      -0.31151969       0.00068111      -0.00829117      -0.00208938
O        6.63738130       8.74930805       4.36925561       0.00493248      -0.00200427       0.00263044
C        7.48652213       6.63085220       1.54545576      -0.00052280      -0.00159567      -0.00543819
H        7.83646929       5.74673151       2.07600733      -0.00453970       0.00062384       0.00296226
C        7.46047235       6.64557035       0.15696279       0.00335393       0.00392517      -0.00499297
H        7.78622912       5.77021581      -0.40559352      -0.00000419       0.00160462       0.00135147
O        7.59503220       6.67035881       4.30880294      -0.00591514       0.00487505       0.01019855
C        7.01273722       7.85999975      -1.99546009      -0.00426762       0.00980056       0.00014306
O        8.05126926       6.08244235      -4.92512519      -0.01334726      -0.00674179       0.01301241
H        7.83483496       5.94048014      -2.42682988       0.02760836       0.00399576      -0.01530968
H        6.61780752       8.78256937      -2.42806137       0.00400631       0.01602798       0.00434212
C       22.84951024      23.48843943       2.80433618      -0.00017356      -0.00010143      -0.00102087
C       22.93166509      23.38935250       4.26147630       0.00017939      -0.00015927      -0.00107420
C       23.18940424      22.52572259       0.54922655      -0.00059736       0.00071674      -0.00098686
O       23.43901429      22.30857895       4.73687278      -0.00006213      -0.00040565      -0.00122451
C       23.58346192      21.41723730      -1.59290972      -0.00041751       0.00098842      -0.00062774
H       23.92131130      20.55485938      -2.16529261      -0.00018348       0.00218792      -0.00228423
C       23.10552078      22.54730920      -2.28181905      -0.00022744       0.00069038      -0.00078746
C       23.07149107      22.56571156      -3.76701437       0.00104897      -0.00011416      -0.00132229
C       23.62451649      21.40662961      -0.20969166      -0.00040753       0.00053417      -0.00064962
H       23.99549843      20.53155915       0.32714461      -0.00021329      -0.00058062      -0.00243605
O       22.56355874      23.60304589      -4.31464871       0.00118164       0.00079616       0.00052043
C       22.66928805      23.66168229      -1.54795999      -0.00100413       0.00103532      -0.00074463
H       22.29820749      24.53357166      -2.08420415      -0.00097539       0.00164436      -0.00012922
C       22.70804915      23.66008379      -0.15993960      -0.00107777       0.00098817      -0.00054817
H       22.36890026      24.53302942       0.39826853      -0.00138949       0.00020897       0.00086370
O       23.55631532      21.54203815      -4.35795426       0.00021203       0.00017345      -0.00249657
C       23.24405072      22.48968726       1.99599310      -0.00049966       0.00004061      -0.00127201
O       22.49357086      24.38615068       4.94186374       0.00013642       0.00054832      -0.00199533
H       22.43901671      24.42051866       2.42379932      -0.00011645      -0.00008659      -0.00121394
H       23.64033611      21.56804624       2.42995875      -0.00056181      -0.00059424      -0.00270670
C       22.64536756       8.21112096       3.02726092      -0.00025202      -0.00165240       0.00015630
C       22.54776249       8.10971476       4.48558122       0.00109409       0.00096505       0.00043450
C       22.13559226       7.38564125       0.74989357      -0.00164773       0.00079178      -0.00231656
O       21.84937135       7.13912387       4.95221188      -0.00172447       0.00207447      -0.00135267
C       21.52053299       6.44838430      -1.42440978      -0.00309301      -0.00289951      -0.00605307
H       21.00386372       5.69863437      -2.02109011      -0.00450828      -0.00179842      -0.00865463
C       22.24627239       7.45755176      -2.08336969      -0.00271581      -0.00045555      -0.00499136
C       22.33363053       7.49455503      -3.56922245      -0.00114034      -0.00807928      -0.00448281
C       21.46973824       6.41051846      -0.04060621      -0.00042898       0.00655757      -0.00577877
H       20.91160122       5.62513014       0.47335940       0.00229917       0.00620496      -0.01142085
O       21.62142135       6.65397397      -4.21417725      -0.00124132      -0.00150020       0.00145702
C       22.91021870       8.42852803      -1.31683636       0.00057042       0.00011268      -0.00674138
H       23.47351549       9.20768753      -1.82758574       0.00449576       0.00656694       0.00140694
C       22.86056613       8.40282487       0.07071143      -0.00449994      -0.00233357      -0.00659830
H       23.38242164       9.16631606       0.64839647      -0.00714562      -0.01061769       0.00200665
O       23.12426873       8.37239805      -4.05651373       0.00025676      -0.00247121      -0.00324461
C       22.06490680       7.32787668       2.19640028      -0.00381568       0.00044064      -0.00066485
O       23.16840406       9.00352642       5.16520781       0.00198954      -0.00039860       0.00141060
H       23.22651420       9.05432213       2.66100268       0.00311826       0.00102067       0.01307071
H       21.48797557       6.49576231       2.60771329      -0.00053082      -0.00005069       0.00514784
C        8.27404015      23.02992866       2.09704797       0.00011899      -0.00069219       0.00120117
C        8.11010407      22.95817715       3.55137152      -0.00053264      -0.00074280       0.00116464
C        7.75066049      22.21899986      -0.18528358      -0.00046740       0.00016119       0.00083667
O        7.33529275      22.03528069       3.99448858      -0.00124234      -0.00048795       0.00054234
C        7.09424785      21.30785049      -2.35692847       0.00171993       0.00256871      -0.00135711
H        6.54345173      20.58123194      -2.95198438       0.00120113       0.00070824       0.00154307
C        7.85861598      22.28810333      -3.01665942       0.00165036       0.00248623      -0.00223952
C        7.90047160      22.33968409      -4.50279701       0.00126902       0.00258824      -0.00314026
C        7.04265675      21.27301988      -0.97412186       0.00080758       0.00141245      -0.00101626
H        6.44847402      20.51399199      -0.46183393       0.00121377       0.00227866       0.00078121
O        7.18807427      21.47618801      -5.11523634       0.00012965       0.00266950      -0.00212524
C        8.57489524      23.22316535      -2.25234597       0.00062001       0.00147802       0.00091219
H        9.17022306      23.97658043      -2.76549440       0.00177178       0.00242342       0.00364375
C        8.52790512      23.19671359      -0.86452523      -0.00029276      -0.00008594       0.00125427
H        9.08633160      23.93124618      -0.28370322      -0.00077659      -0.00075853       0.00252529
O        8.64129248      23.24384043      -5.01672297       0.00379263       0.00135393      -0.00143518
C        7.66047840      22.17519498       1.26023312      -0.00065421      -0.00045117       0.00129245
O        8.75047190      23.82293475       4.24834905       0.00003126      -0.00087228       0.00072920
H        8.92568848      23.82475966       1.74192224       0.00063218      -0.00052466       0.00157169
H        7.03287497      21.37839185       1.66756703      -0.00112902      -0.00044490       0.00110065
C       -2.91735723       7.68294830       8.30655197      -0.00110796       0.00241141      -0.00130969
C       -4.37735516       7.78336263       8.24513619      -0.00160868       0.00165820      -0.00077889
C       -0.66446108       8.22292442       7.43065718      -0.00115262       0.00159844      -0.00122796
O       -4.86697956       8.50854224       7.30552065      -0.00290567       0.00002412      -0.00130701
C        1.47717114       8.80634608       6.40322048      -0.00184471       0.00103147      -0.00133943
H        2.04985204       9.28797934       5.61234273      -0.00375692       0.00194907      -0.00196815
C        2.16809050       8.13162917       7.42574095      -0.00103058       0.00077289      -0.00196492
C        3.65257714       8.05462860       7.41812443      -0.00028001       0.00204911      -0.00152212
C        0.09337241       8.85129125       6.40588439      -0.00180211       0.00156477      -0.00072084
H       -0.44440835       9.37233940       5.61163436      -0.00442712       0.00167156       0.00129952
O        4.25859171       8.66452484       6.47427480       0.00262997       0.00350868       0.00173663
C        1.43582892       7.51225964       8.45149700      -0.00158389       0.00085138      -0.00128124
H        1.97339922       6.99312705       9.24343375      -0.00461149       0.00033328       0.00064159
C        0.04799121       7.55138150       8.46149851      -0.00159129       0.00146956      -0.00124471
H       -0.50633397       7.06455361       9.26417532      -0.00288247       0.00251384      -0.00144978
O        4.17986736       7.37677779       8.36424425      -0.00439074      -0.00080243      -0.00123109
C       -2.11252638       8.27587733       7.40743212      -0.00119587       0.00230528      -0.00153501
O       -5.03626265       7.13904218       9.13760138      -0.00206044       0.00315632      -0.00033881
H       -2.53023436       7.08276511       9.12684950      -0.00140058       0.00206875      -0.00107388
H       -2.54988835       8.84497199       6.58321540      -0.00292409       0.00209680      -0.00099921
C       -2.20697878      22.24694485      23.17171100      -0.00330061       0.00249104       0.00081027
C       -3.66217004      22.40990598      23.13811764      -0.00320248       0.00410704       0.00124012
C        0.05181004      22.71445966      22.26832344      -0.00288992      -0.00009772      -0.00067668
O       -4.14367346      23.14175000      22.19935437      -0.00051302       0.00889544       0.00358863
C        2.19856177      23.33184508      21.27601539      -0.00291853       0.00187049      -0.00108299
H        2.77551994      23.87326405      20.52815740      -0.00499482       0.00326960      -0.00210375
C        2.88114438      22.55749242      22.23171549      -0.00091149       0.00286656      -0.00040479
C        4.36722224      22.50194851      22.22772093      -0.00007464       0.00327313       0.00011758
C        0.81679786      23.40606171      21.29154703      -0.00337884       0.00041700      -0.00047133
H        0.28789356      24.00716736      20.54979827      -0.00559942      -0.00022438       0.00049953
O        4.95102311      23.26297011      21.38552579      -0.00188100       0.00079257      -0.00333418
C        2.14099232      21.85423716      23.19586752      -0.00134018       0.00090469      -0.00164214
H        2.67246593      21.24894137      23.92850820      -0.00371379      -0.00032639      -0.00056409
C        0.75414133      21.92865130      23.22331130      -0.00183484      -0.00000712      -0.00201991
H        0.19159140      21.38343671      23.98172235      -0.00397210      -0.00000810      -0.00369092
O        4.90945636      21.70582415      23.06491453       0.00142050       0.00789436       0.00363275
C       -1.39276119      22.82742130      22.27333774      -0.00313606       0.00117243       0.00025265
O       -4.32812565      21.80806236      24.05552005      -0.00504709       0.00150797      -0.00241280
H       -1.83067525      21.62371894      23.97982915       0.00031894       0.00208797      -0.00101681
H       -1.81960082      23.44304872      21.47743213      -0.00071778       0.00146007      -0.00073356
C        2.62647166      22.88788288       6.74588042       0.00067058      -0.00004506      -0.00014605
C        4.08620355      22.96163932       6.81862419       0.00041991      -0.00011004      -0.00030624
C        0.39198046      23.24947637       7.75287550       0.00067509      -0.00008783      -0.00002908
O        4.57847647      23.48503384       7.88414044      -0.00027079       0.00042724      -0.00018078
C       -1.72254046      23.61808804       8.92286539       0.00047324       0.00017618       0.00018014
H       -2.27407694      23.92691214       9.80936577       0.00071285       0.00034552       0.00048912
C       -2.43991070      23.18038784       7.79468850       0.00001867       0.00013210       0.00014948
C       -3.92591092      23.13236160       7.81612615      -0.00062150       0.00031298       0.00016254
C       -0.33912203      23.65371142       8.90199892       0.00067132       0.00005495      -0.00004316
H        0.21915068      23.99323647       9.77640846       0.00087725       0.00010709      -0.00013476
O       -4.49410552      23.53587475       8.88632657      -0.00001983       0.00010374       0.00071126
C       -1.73393385      22.78438703       6.64732529       0.00033099      -0.00007760       0.00009526
H       -2.29241488      22.44908072       5.77480682       0.00056216      -0.00026246      -0.00016799
C       -0.34584590      22.81448961       6.61816861       0.00052673      -0.00012839       0.00011349
H        0.19055028      22.50427613       5.72099634       0.00071200      -0.00017463       0.00020567
O       -4.49305540      22.69015319       6.75993430      -0.00007584       0.00071583      -0.00044882
C        1.84012439      23.28658763       7.76072291       0.00069284      -0.00002836      -0.00018774
O        4.75074403      22.50282542       5.82060176      -0.00056030      -0.00071781      -0.00069652
H        2.22470405      22.47499208       5.82384772       0.00081111      -0.00016439      -0.00002192
H        2.29466092      23.66957158       8.67810014       0.00080760       0.00002626      -0.00034269
C       -2.58090167       7.29760735      23.60824070       0.00072999      -0.00156209      -0.00008099
C       -4.03702571       7.17273418      23.54249216      -0.00421314      -0.00347661       0.01156608
C       -0.34021759       7.09119482      22.58101299       0.00799307      -0.00116465      -0.00333406
O       -4.53412688       6.66030167      22.47524961       0.00035268       0.00010003       0.00915992
C        1.78784646       6.80461013      21.41375614       0.01166142      -0.00091201      -0.00889969
H        2.34994689       6.50313881      20.53196800       0.00963988      -0.00222840      -0.01566530
C        2.48928115       7.28800565      22.53363360       0.00253362       0.00214748       0.00017517
C        3.97516315       7.37833266      22.51339588       0.00679337      -0.00070876       0.00571439
C        0.40678657       6.71173558      21.43431121       0.01181566       0.00175138       0.00171685
H       -0.13734929       6.34079316      20.56325473       0.01195614      -0.00025861       0.00880826
O        4.55433192       6.94095190      21.46174289       0.02292128       0.00211030       0.01684934
C        1.76518245       7.67322690      23.67310715       0.00807096       0.00431523       0.00641219
H        2.30879915       8.04733142      24.53872097       0.00494693       0.00768043       0.01304870
C        0.37914187       7.58116932      23.70623975       0.00818162      -0.00137103      -0.00834716
H       -0.16797729       7.88543142      24.59955996       0.00075337      -0.00870297      -0.01678817
O        4.53358172       7.88098744      23.54752135       0.02260084      -0.00388146      -0.00483270
C       -1.78358212       6.97169908      22.57707715       0.00509538      -0.00580056       0.00378082
O       -4.70091610       7.58745851      24.56277381      -0.00105625       0.00076780       0.01151218
H       -2.19086346       7.69002890      24.54440260      -0.00180036       0.00138476      -0.00115561
H       -2.22335015       6.58221145      21.65510065      -0.00176468       0.00287347       0.00422715
C        6.81655080       2.64286092       7.36932642       0.00167332      -0.00067437      -0.00262141
C        6.90553338       4.09986203       7.27987395       0.00091053      -0.00000537      -0.00439284
C        7.77463577       0.39161976       6.99967169       0.00139085      -0.00190118      -0.00159475
O        7.95821343       4.58202221       6.72337500       0.00293777       0.00164118       0.00178758
C        8.88890896      -1.74716998       6.60336532       0.00156075      -0.00190000      -0.00091278
H        9.75753473      -2.31727313       6.27819571       0.00152843      -0.00236823      -0.00046422
C        7.75017729      -2.44034054       7.05263452       0.00099733      -0.00148971      -0.00129452
C        7.73242538      -3.92685874       7.08009216       0.00025470      -0.00149639      -0.00121923
C        8.90010466      -0.36354614       6.57482237       0.00163367      -0.00189496      -0.00106056
H        9.78115967       0.17662412       6.22341581       0.00191314      -0.00207315      -0.00058794
O        8.79231628      -4.51760869       6.68199920      -0.00012325      -0.00113670      -0.00275712
C        6.62821086      -1.70979696       7.47616341       0.00088455      -0.00144980      -0.00147251
H        5.74845526      -2.24907348       7.82377968       0.00056883      -0.00109582      -0.00153176
C        6.63217153      -0.32143478       7.45575469       0.00114573      -0.00148998      -0.00171249
H        5.75433258       0.23383320       7.78734280       0.00131205      -0.00115384      -0.00189035
O        6.65534610      -4.47186865       7.49975140       0.00013436      -0.00029482       0.00031755
C        7.81141301       1.83851364       6.95756973       0.00126208      -0.00168268      -0.00203030
O        5.92469263       4.77362465       7.76329126      -0.00400540      -0.00161896      -0.01143840
H        5.89904087       2.25918626       7.80915149       0.00057169       0.00030844      -0.00342275
H        8.72987794       2.27584409       6.55781435       0.00099025      -0.00107550      -0.00220787
C       22.36602152       2.44903135      23.43110735      -0.00419289      -0.00281124       0.00061901
C       22.48065272       3.90680788      23.34987380       0.00976125       0.00099338      -0.00577090
C       23.31620311       0.18506742      23.08782160       0.00358601      -0.00215264       0.00000750
O       23.59373794       4.36502623      22.90069750       0.00889298       0.01239847       0.00265064
C       24.41253220      -1.95494393      22.64798530       0.01104576      -0.00361568      -0.00309737
H       25.27109762      -2.52318124      22.29527872       0.01036108      -0.01099079      -0.00634428
C       23.28202108      -2.64950528      23.11398078       0.00194432       0.00287843      -0.00387782
C       23.25978246      -4.13632553      23.11989727      -0.00358721       0.00116439      -0.00040740
C       24.43043894      -0.57137304      22.63785692       0.00616604      -0.00182107      -0.00250535
H       25.30830117      -0.03189378      22.27797798       0.00639508      -0.00133639      -0.00341159
O       24.26039685      -4.72684681      22.58762272      -0.00701811      -0.00559626       0.00196107
C       22.17301103      -1.91763554      23.56924612      -0.00124092      -0.00231999       0.00287669
H       21.30025723      -2.45660425      23.93406117      -0.00497556      -0.00412321       0.00183756
C       22.17977951      -0.52834892      23.55828904       0.00224678      -0.00098554      -0.00005411
H       21.31024141       0.02683498      23.91178924       0.00625314       0.00648454      -0.00178926
O       22.23759203      -4.68381533      23.65718440       0.00011406      -0.00325366       0.00239856
C       23.36415218       1.63258215      23.05264955      -0.00312021       0.00007935      -0.00131120
O       21.46722684       4.59681367      23.72757738      -0.00052561      -0.02363670       0.00719377
H       21.42076240       2.07200289      23.81265982      -0.01347022       0.00603530       0.00582861
H       24.29697168       2.06270891      22.67877197       0.00523973      -0.00826072       0.00118290
C        7.35207813       2.33629584      22.06839488       0.00180711      -0.00815304      -0.00580625
C        7.45145302       3.79207324      22.20419853      -0.00178210      -0.00633639      -0.00811663
C        8.16136843       0.04541137      22.55115756       0.00011209       0.00147709       0.00120969
O        8.43393501       4.24770143      22.89239263       0.00776812      -0.03902639      -0.00713898
C        9.08487238      -2.13899473      23.14243595       0.00462831       0.00317916       0.00457358
H        9.83521226      -2.74385513      23.64865050       0.00629952       0.00279252       0.00561753
C        8.05890692      -2.78611195      22.42972024       0.00247365       0.00497109       0.00320013
C        8.00700347      -4.27197785      22.37814034       0.00409264       0.00122998       0.00265132
C        9.13750007      -0.75703721      23.20015598      -0.00291882       0.00332935      -0.00015628
H        9.93564865      -0.25812877      23.75302451      -0.00727911       0.00753136      -0.00441672
O        8.86937786      -4.88419779      23.09282177       0.00415400      -0.00034571       0.00088156
C        7.08937653      -2.00871897      21.77568540       0.00013872       0.00053264      -0.00084792
H        6.29787502      -2.50940167      21.22061399       0.00277446      -0.00834582      -0.00127045
C        7.13112570      -0.62121800      21.83246401       0.00142644       0.00053401       0.00087521
H        6.36950575      -0.02865891      21.32485831      -0.00097549      -0.00960858      -0.00331684
O        7.11057126      -4.78692171      21.62866744       0.00941446      -0.01113406       0.00445285
C        8.22919693       1.49063482      22.63608493       0.00963064       0.00097582       0.00202563
O        6.53978770       4.48016360      21.61999894      -0.00380932      -0.00008519       0.00122374
H        6.51354146       1.98527954      21.47139650      -0.00960049       0.00999798       0.00107047
H        9.06588824       1.89200957      23.21303381       0.00989929      -0.00229670       0.00950219
C       23.01418237      -2.28362408       8.37444470       0.00092084       0.00270605       0.00138210
C       22.93781044      -3.74057714       8.24562016       0.00011799       0.00211464       0.00026480
C       22.19891874      -0.01286624       7.81422771      -0.00002669       0.00183488       0.00060231
O       21.98313081      -4.20021623       7.52043032       0.00054929       0.00059435       0.00050870
C       21.28208144       2.14986442       7.13538802      -0.00003014       0.00040830      -0.00037021
H       20.55297616       2.73761237       6.58007920       0.00025817       0.00062793      -0.00008379
C       22.26019104       2.82014800       7.89295504       0.00023543       0.00036024      -0.00054006
C       22.29897218       4.30645024       7.93661932       0.00039966       0.00073920       0.00044556
C       21.25087043       0.76628508       7.09840233      -0.00104071       0.00043612      -0.00034621
H       20.49223490       0.24516577       6.51155039      -0.00130623      -0.00063709      -0.00001468
O       21.45313324       4.92027784       7.20424019       0.00077654      -0.00016782      -0.00095679
C       23.20317936       2.06548083       8.60950256      -0.00038695       0.00043661      -0.00012060
H       23.95851855       2.58472932       9.19714808      -0.00200448       0.00281260      -0.00070810
C       23.18119293       0.67740063       8.57537569       0.00061517       0.00053097       0.00138655
H       23.92127502       0.10446568       9.13437827       0.00150912       0.00225467       0.00302973
O       23.17898130       4.82102510       8.70590538      -0.00088363       0.00057538       0.00188586
C       22.15276653      -1.45983616       7.75242930       0.00056057       0.00237438       0.00088636
O       23.82989427      -4.42390574       8.86267600      -0.00020307       0.00119619      -0.00016232
H       23.82271609      -1.91588134       9.00149091       0.00193471       0.00223695       0.00178972
H       21.34897432      -1.88013478       7.14244243      -0.00009141       0.00428173       0.00022860
C        7.28169854      23.09609314      12.14693613      -0.00076888       0.00061153      -0.00207025
C        7.35296745      22.98601727      10.68877377      -0.00016010      -0.00001167      -0.00060329
C        7.67631141      22.18627210      14.41384279      -0.00120157       0.00037811      -0.00271792
O        7.84108137      21.89960282      10.20918764       0.00064332       0.00035285      -0.00026685
C        8.16813966      21.14969319      16.57136652      -0.00053389       0.00210696      -0.00107375
H        8.53583681      20.30877881      17.15731333      -0.00058113       0.00197173      -0.00201209
C        7.72373328      22.30406198      17.24176629       0.00027108       0.00156934       0.00103312
C        7.78969992      22.38448260      18.72263912      -0.00132838       0.00290864       0.00082450
C        8.14382350      21.09170787      15.18910617      -0.00039705       0.00013625      -0.00173585
H        8.49173575      20.19884106      14.66651278       0.00003058      -0.00041687      -0.00294405
O        8.33873397      21.39413026      19.31761978      -0.00145184       0.00094321      -0.00215254
C        7.24043337      23.38844259      16.49351189      -0.00041616       0.00021762      -0.00064736
H        6.88856835      24.27524256      17.01815920      -0.00188924       0.00184706      -0.00425639
C        7.21439976      23.33908765      15.10633189      -0.00160698       0.00129632      -0.00179808
H        6.84263883      24.19063449      14.53630917      -0.00189217       0.00141161      -0.00465808
O        7.30126350      23.43252208      19.26608398      -0.00114779       0.00355001      -0.00090207
C        7.68906260      22.11253852      12.96746891      -0.00093446      -0.00008078      -0.00315640
O        6.92442155      23.99194044      10.01561983      -0.00002359      -0.00004645      -0.00046695
H        6.87456658      24.03340473      12.51893409       0.00020652       0.00008881      -0.00115459
H        8.06934018      21.17898361      12.54497375      -0.00018467      -0.00072773      -0.00150251
C       22.99960631       7.13580940      18.22488639       0.00592739      -0.00253705      -0.00924195
C       23.07825594       7.29064506      19.67928103      -0.00773308      -0.01017853      -0.00722335
C       22.48612601       8.03885781      15.97632505       0.00250319       0.00596883      -0.00979581
O       22.71545191       8.42556335      20.15783861       0.00482190      -0.00652938      -0.01490137
C       21.90592743       9.08989470      13.84613704      -0.00150200      -0.00638852      -0.00635800
H       21.49986165       9.92875132      13.28287955      -0.00162707      -0.00696268       0.00186145
C       22.38690942       7.96866247      13.14550103      -0.00254472      -0.00294568      -0.00762883
C       22.34038860       7.92852797      11.65982601       0.00020516      -0.00605830      -0.00371206
C       21.94979866       9.12164877      15.22931104       0.00324797       0.00420087      -0.00761181
H       21.57183465       9.98837060      15.77492971       0.00731756       0.00107034      -0.00169193
O       22.85616312       6.90129334      11.10195935       0.00629831      -0.00651678       0.00394662
C       22.91240211       6.88504635      13.86804997      -0.00475039       0.00163265      -0.00391883
H       23.28620985       6.02043023      13.32156730      -0.00339194      -0.00031126       0.00723979
C       22.96082039       6.90843996      15.25604576       0.00031834       0.00605750      -0.00606553
H       23.37125517       6.05993410      15.80466642      -0.00143118       0.00985667       0.00079661
O       21.78788148       8.92345421      11.07741134      -0.00511994      -0.00924040      -0.00316513
C       22.54739423       8.11396718      17.42152287       0.00117882       0.00442657      -0.00994373
O       23.49979127       6.27932041      20.34666364      -0.01433399      -0.01334279      -0.00365274
H       23.31599071       6.16869014      17.84164627       0.01520381       0.00124543       0.00201386
H       22.19110621       9.05071977      17.85843051       0.00417577      -0.00405759       0.00423553
C       22.62148072      22.46847289      12.84568671      -0.00039755      -0.00030125       0.00084944
C       22.70666313      22.63782718      11.39307266      -0.00077765      -0.00056969       0.00090365