504
Lattice="20.98318361934317 0.0 0.0 0.0 20.98318361934317 0.0 0.0 0.0 20.98318361934317" Properties=species:S:1:pos:R:3:forces:R:3 energy=-3715.207013083897 stress="0.0003239554503605942 2.236467264269675e-05 0.00019087927958703535 2.236467264269675e-05 -0.0003598466206514088 2.8112183754756594e-05 0.00019087927958703535 2.8112183754756594e-05 0.00012793292204466228" pbc="T T T"
C        7.28865574       0.85442965       7.23761784      -0.00956615       0.00543060      -0.00161740
C        6.01408147       0.27235880       7.55562996      -0.00435165       0.00083282       0.00145043
C        7.56393444       1.21806206       5.92376147       0.00054173       0.00139910      -0.00107134
C        5.01983383       0.25099739       6.55009267      -0.00205061      -0.00192581       0.00060532
C        8.31337938       1.06820675       8.29631955      -0.00347674      -0.01594767      -0.01288501
C        6.58711171       1.13163666       4.93407597       0.00227894      -0.00093021      -0.00004667
C        5.29257690       0.69831381       5.25982368       0.00039380       0.00024135       0.00200888
C        4.20238640       0.76446817       4.23258353       0.00195397      -0.00268692       0.00322974
H        8.55248134       1.60353471       5.67959324       0.00170360      -0.00108951      -0.00090447
H        4.02139033      -0.11817330       6.78766259      -0.00195305      -0.00063435       0.00551038
O        9.51662055       1.23815737       7.89781456       0.00018446      -0.00674849       0.00306669
O        7.92884832       1.11285028       9.51647759      -0.01001556       0.00824957      -0.00312351
H        6.81075160       1.42625376       3.91105630      -0.00047711       0.00008018      -0.00019786
O        2.99053124       0.75193920       4.63789160      -0.00152270      -0.00289791       0.00060303
O        4.59269383       0.88474253       3.01744294       0.00024757      -0.00327607       0.00342071
N        5.78368586      -0.26652497       8.77122355       0.00513475      -0.00013211       0.00320100
H        4.90254696      -0.72011946       8.97560959       0.00355500      -0.00035035       0.00662130
H        6.43225140      -0.09306753       9.53986086       0.00179041      -0.00168129       0.00261073
C       17.87673417       0.78602347      17.63109347       0.00096134      -0.00065079       0.00058049
C       16.61043335       0.18130514      17.94174207       0.00107181      -0.00017871       0.00176850
C       18.15382316       1.15343394      16.31854993      -0.00057688      -0.00077102      -0.00006723
C       15.61685066       0.16182321      16.93589211      -0.00056313      -0.00045166       0.00113314
C       18.88495700       1.02569435      18.69985850       0.00293511       0.00076873       0.00038771
C       17.17900439       1.06284160      15.32613427      -0.00249693      -0.00090047      -0.00035022
C       15.88542473       0.62489750      15.65040754      -0.00503821       0.00110276      -0.00268327
C       14.78346123       0.71120417      14.63565042      -0.00827734       0.00836455      -0.01187189
H       19.14055306       1.54767356      16.07966907      -0.00128064       0.00009165      -0.00246372
H       14.62052590      -0.21516006      17.17106652      -0.00062494      -0.00048243       0.00260286
O       20.09507777       1.20051776      18.32666768       0.00134236       0.00257798      -0.00258512
O       18.47263117       1.09052779      19.91133453       0.00009967      -0.00000810       0.00048309
H       17.40082471       1.36251962      14.30396264      -0.00186423      -0.00022370      -0.00163484
O       13.57970340       0.71863873      15.06365588      -0.00276362       0.00939983       0.01524897
O       15.15095703       0.82849885      13.41376015       0.00844135       0.00567490      -0.01002999
N       16.38472847      -0.37967785      19.14828525       0.00099354       0.00025411       0.00114075
H       15.51257316      -0.85572550      19.33989801       0.00100326       0.00104207       0.00043530
H       17.02272346      -0.21124769      19.92593255       0.00366513       0.00100434      -0.00158682
C       17.76501880       1.34970696       5.27100782       0.00397833      -0.00075213       0.00699024
C       16.44924819       1.84212949       4.96919538       0.00457389       0.00008235       0.00692238
C       18.08194487       0.99825972       6.57910263      -0.00384383       0.00105981       0.00863876
C       15.47385186       1.80710200       5.99186348       0.00253327      -0.00194697       0.00375096
C       18.78877131       1.20189253       4.20317160       0.00058995       0.00057726      -0.00121446
C       17.11509855       1.01140098       7.58135092      -0.00911536      -0.00103040       0.00329563
C       15.79431905       1.37429101       7.27667478      -0.00852662      -0.00971250      -0.00149233
C       14.71842231       1.24752624       8.31232188       0.02628346       0.02990916      -0.00294168
H       19.10013653       0.69183929       6.81116821       0.00012176      -0.00075977      -0.00544801
H       14.45102744       2.11466567       5.76978624       0.00595680      -0.00188124       0.00316653
O       19.99326685       1.02249508       4.59161649       0.00331678       0.00594786      -0.00194898
O       18.40506234       1.20487552       2.97912521       0.00186755       0.00149814      -0.00134731
H       17.36503612       0.71295722       8.59722322       0.00647222       0.00010741      -0.00568194
O       13.50959922       1.24167214       7.90203162      -0.03982408       0.03280410       0.00713809
O       15.10920930       1.11219076       9.52525734      -0.00840870      -0.01221554      -0.01065576
N       16.15969211       2.34845955       3.75247893      -0.00112520       0.00077249       0.00376838
H       16.81832853       2.22535656       2.98255695       0.00036187       0.00042913      -0.00171701
H       15.24245978       2.72720224       3.55664714       0.00069241       0.00098212       0.00118938
C        7.39541961       1.43437852      15.89726696       0.00204191      -0.00050655      -0.00186448
C        6.10942353       2.00580554      15.60632145       0.00023354      -0.00210389       0.00142946
C        7.69030744       1.03625087      17.19678064       0.00164581      -0.00300248      -0.00074779
C        5.12443215       1.97882579      16.61933977       0.00380866      -0.00034530       0.00235506
C        8.40103306       1.24705695      14.81694066       0.00388147       0.00854435      -0.00829801
C        6.71722694       1.06287461      18.19392368       0.00016986      -0.00027607      -0.00178095
C        5.41419082       1.48365301      17.88837307       0.00124794       0.00078913       0.00147939
C        4.31829398       1.34776492      18.90025568       0.00047976       0.00072255       0.00205907
H        8.68995313       0.66671194      17.41983364       0.00171543      -0.00254850       0.00101996
H        4.11761002       2.33700410      16.40009345       0.00572710       0.00166517       0.00364401
O        9.61264721       1.05935144      15.18248287       0.00137473       0.00572269       0.00757717
O        7.98989791       1.23108914      13.60481606      -0.00305294       0.00733676      -0.01155069
H        6.94619216       0.71960961      19.20090500      -0.00012320       0.00128224      -0.00338371
O        3.11688288       1.35309116      18.46814432       0.00091477      -0.00051575      -0.00058393
O        4.68493982       1.18821518      20.11877469       0.00126336      -0.00003161       0.00182408
N        5.85473856       2.56975134      14.40727125       0.00513319      -0.00104875       0.00049881
H        6.49844091       2.42273883      13.62910040      -0.00046901      -0.00114814       0.00294736
H        4.96560432       3.01666388      14.22405233       0.00126045       0.00134192       0.00303506
C        5.33384226       5.30253851       1.10940800       0.00266367      -0.00837388      -0.00132481
C        6.69398082       4.95810330       0.79865879       0.00263739      -0.00489455      -0.00304835
C        5.01506377       6.62014710       1.42450680      -0.00762880      -0.00984660      -0.00225658
C        7.67664328       5.96887236       0.88628126      -0.00001425      -0.00042564       0.00392001
C        4.26862731       4.26507003       1.10914217       0.00333459       0.00120247      -0.00229410
C        5.99496226       7.60855720       1.46617426      -0.01245351      -0.00264825       0.00579449
C        7.33332126       7.27991737       1.20214333      -0.00579092       0.00233494       0.00490335
C        8.39126740       8.33600422       1.20463952       0.03240400       0.00849244      -0.02327261
H        3.97966347       6.87087949       1.64646521      -0.00350681       0.00339360      -0.00050737
H        8.72082186       5.72140296       0.69104375       0.00471386       0.00163914       0.00141769
O        4.62142791       3.03296755       1.08863528       0.00269465       0.00176239       0.00179061
O        3.05941079       4.67393398       1.18019844       0.00220807      -0.00044247      -0.00255939
H        5.73576922       8.63837023       1.70068700       0.00068732       0.00841302       0.00055741
O        7.97961260       9.54478010       1.12575441      -0.01702431       0.01219256       0.01332563
O        9.61019611       7.95201745       1.23307469      -0.04347059      -0.00268811      -0.03127389
N        7.03239242       3.71268920       0.40374763       0.00173813      -0.00011127      -0.00462585
H        6.33555729       2.96667120       0.44627734       0.00371635       0.00377503      -0.00175909
H        7.99440684       3.48203444       0.19414427       0.00105082       0.00410703      -0.00755087
C       15.72491964      15.88849874       0.99895727       0.00405423       0.00375718       0.00187905
C       15.41506941      17.21357080       1.44970719      -0.00010106       0.00093800       0.00264752
C       17.00627084      15.58962685       0.54805687       0.00302242      -0.00056399       0.00092871
C       16.41340418      18.20522666       1.33174169      -0.00126423       0.00283707       0.00014275
C       14.68567625      14.82853965       1.02342270       0.00300225       0.00520115      -0.00831073
C       17.98380877      16.57625178       0.46605751       0.00276897      -0.00125195      -0.00113228
C       17.68169117      17.89120328       0.84630382      -0.00052327       0.00020725      -0.00159139
C       18.73475963      18.94813562       0.78210625       0.00048429       0.00160523      -0.00006058
H       17.23560243      14.56688504       0.25483373      -0.00217463      -0.00079694      -0.00070935
H       16.19519163      19.22644606       1.64732385      -0.00294779       0.00443178       0.00068512
O       13.45595828      15.18937491       0.99961403      -0.00118169      -0.00878423      -0.00647439
O       15.09885166      13.61965033       1.00737998      -0.00714068       0.01065125      -0.00515363
H       18.98449052      16.33975103       0.11204193       0.00375057      -0.00271402      -0.00216777
O       19.94539329      18.54810149       0.72805639      -0.00051335      -0.00446218      -0.00029874
O       18.34186584      20.17155700       0.83083146      -0.00425699       0.00092369       0.00022381
N       14.21912728      17.49528568       2.00978352      -0.00133895       0.00068935      -0.00088610
H       13.45274155      16.82486975       1.93440855      -0.00206862       0.00192900       0.00079737
H       14.02301752      18.42305292       2.36137085      -0.00217543       0.00169076      -0.00044338
C        7.18535996      15.76076382       0.72665505      -0.00507681       0.00311663       0.00138492
C        5.83552417      15.43275559       0.36551206      -0.00223996      -0.00035266      -0.00105630
C        7.50660526      17.06490450       1.09111137      -0.00371300      -0.00020026       0.00112691
C        4.85356942      16.44175336       0.47497723      -0.00217285      -0.00004251      -0.00210391
C        8.24421406      14.71970168       0.72459736      -0.00709039       0.00979605      -0.00935786
C        6.52466232      18.04735140       1.17737001      -0.00123200       0.00033529       0.00044605
C        5.18993424      17.73064512       0.88430075      -0.00121716       0.00042442      -0.00189310
C        4.13215527      18.78439104       0.97091234      -0.00059638       0.00164655      -0.00050732
H        8.54331901      17.30807560       1.31600447      -0.00409299      -0.00183607      -0.00044995
H        3.81626722      16.21010758       0.22975832      -0.00179577       0.00136772      -0.00371359
O        7.88625635      13.48710929       0.76140590       0.01237760       0.01171259      -0.00506039
O        9.45085115      15.13257964       0.74812963       0.00125061      -0.01674413      -0.01098079
H        6.77987080      19.06261026       1.47234440      -0.00021851       0.00054099       0.00015693
O        4.54183476      19.99114585       1.04854084       0.00122962       0.00063422      -0.00067230
O        2.91137517      18.39877160       0.91764483      -0.00148362      -0.00144435      -0.00092231
N        5.51875672      14.20244816      -0.09332197      -0.00346210       0.00297933      -0.00485039
H        4.56949250      13.98083181      -0.36346165       0.00187800       0.00069641      -0.00592129
H        6.19961524      13.44677514      -0.00044024      -0.00198934       0.00103032      -0.00431256
C       15.87751157       7.41907662       1.03101998      -0.00666518       0.00389530       0.00153907
C       15.58145425       6.13431979       0.46585974       0.00308890      -0.00207683      -0.00270376
C       17.15043546       7.68482696       1.52447642      -0.00567549      -0.00315364      -0.00475659
C       16.57313112       5.13251088       0.54723383       0.00243879      -0.00142465       0.00057213
C       14.82216018       8.46326074       1.09077507      -0.00097824       0.01396745       0.01665528
C       18.12776962       6.69293051       1.55430720      -0.00080083      -0.00104073       0.00019919
C       17.82754131       5.40461822       1.08901390       0.00223646       0.00099373      -0.00020354
C       18.85669786       4.32085493       1.14009202      -0.00028573      -0.00056144       0.00191720
H       17.36876623       8.68230006       1.90313787       0.00037206      -0.00706448      -0.00442983
H       16.35643424       4.13363542       0.16571508       0.00111287      -0.00077571      -0.00125443
O       13.60279640       8.06969136       1.10087583       0.00625760      -0.00656218       0.00321157
O       15.20550714       9.67886641       1.18393455      -0.01851232       0.00614842      -0.01016393
H       19.12271838       6.90155349       1.94156002       0.00149558      -0.00256078       0.00105586
O       20.07819948       4.68521124       1.22020090       0.00042061      -0.00245472       0.00428964
O       18.42837439       3.11247511       1.05959818       0.00002575      -0.00077069      -0.00005149
N       14.40895757       5.89544066      -0.16032180       0.00237143       0.00601660      -0.00021771
H       14.23583502       5.00061128      -0.59926157      -0.00050162      -0.00034393      -0.00174371
H       13.62965538       6.54708941      -0.06436995       0.00328793       0.00122212      -0.00046753
C        0.97144588       5.19246135       5.43238108       0.00185477      -0.00228106      -0.00017588
C        0.98727540       4.84862807       6.82769795       0.00046205       0.00135782       0.00402971
C        1.00969613       6.53230614       5.05795183      -0.00149867      -0.00405538      -0.00081106
C        1.06697873       5.89482059       7.77462371      -0.00004575       0.00485772       0.00203497
C        0.95521284       4.14463212       4.37859661       0.00443846       0.00517512       0.00489039
C        1.07124248       7.54650147       6.00906852      -0.00171738       0.00131802      -0.00658581
C        1.10285345       7.22871500       7.37578833       0.00056861       0.00506313      -0.00377025
C        1.13007891       8.30887880       8.41134099       0.00044701       0.00377594       0.00452907
H        0.99186649       6.78284486       3.99940535      -0.00152196      -0.00208190       0.00293274
H        1.09337736       5.65390591       8.83782657      -0.00087835       0.00583881       0.00614557
O        0.94866963       2.90567791       4.71574587       0.00860935       0.00299766      -0.00385179
O        0.99353236       4.56728520       3.17341955       0.00210962      -0.01000507       0.00275363
H        1.08320167       8.58941881       5.70306994      -0.00321549       0.00467285      -0.00348072
O        1.06386946       9.51556598       7.97757068      -0.00149086       0.00266610      -0.00916445
O        1.17051658       7.94553661       9.63325130       0.00528179      -0.00367250       0.00164761
N        0.92795326       3.56424958       7.23025945      -0.00033528       0.00373187       0.00010935
H        0.88818369       2.82359586       6.52647590       0.00377313       0.00260998       0.00915388
H        0.93695521       3.32853749       8.21330115      -0.00042820       0.00515650       0.00678973
C        0.94226363      17.98267811      17.58339573       0.00017257       0.00008123      -0.00099632
C        0.40978729      18.27713950      16.28570911       0.00001392      -0.00004309      -0.00099583
C        1.43550008      16.71379616      17.86781936       0.00041304       0.00019213      -0.00018418
C        0.48254187      17.26978482      15.29850277       0.00008487      -0.00103425       0.00041510
C        0.93205568      19.01595217      18.64697141      -0.00043095       0.00096038      -0.00079893
C        1.47242133      15.72809144      16.88752536      -0.00012186       0.00033872      -0.00045183
C        1.00070046      16.01109616      15.59869098      -0.00018078      -0.00089051      -0.00040353
C        1.01832219      14.93754008      14.55709227      -0.00042189      -0.00157369      -0.00030235
H        1.79429134      16.49926792      18.87272993       0.00040345       0.00017635       0.00016748
H        0.11162115      17.47282236      14.29272748       0.00065440      -0.00096198       0.00099920
O        0.95941746      20.25134925      18.30446978       0.00005141       0.00093676      -0.00069607
O        0.95161971      18.58399313      19.84796495       0.00057486      -0.00023771      -0.00011893
H        1.85876863      14.73584549      17.11006786      -0.00005842       0.00088599      -0.00032520
O        1.06356273      13.73792977      14.98855464       0.00086427      -0.00050125       0.00104968
O        0.94966521      15.30795910      13.33298780      -0.00079730      -0.00019258      -0.00049210
N       -0.18166276      19.46747153      16.03968344      -0.00061827      -0.00012958      -0.00060303
H       -0.05753005      20.23648442      16.69925637       0.00020584      -0.00038393      -0.00000243
H       -0.58846006      19.66697416      15.13505569      -0.00068910      -0.00059678      -0.00100147
C        1.21150332       5.50207859      17.89877987      -0.00206801       0.00160122      -0.00094581
C        1.41302209       6.88119042      18.24934667      -0.00153014       0.00238040      -0.00315345
C        0.98606438       5.15739675      16.56910991       0.00029196      -0.00015144      -0.00096672
C        1.34111388       7.84905625      17.22203146      -0.00197418       0.00094310      -0.00441973
C        1.21575972       4.43822475      18.93468190      -0.00137830       0.00161344       0.00237454
C        0.92718870       6.12730940      15.57327737       0.00196699      -0.00206122      -0.00259531
C        1.10966385       7.47950419      15.89921227       0.00005424      -0.00196615      -0.00346428
C        1.09847197       8.52260695      14.82522644      -0.00166038      -0.00404281      -0.00384242
H        0.84995599       4.10909187      16.31248287       0.00206453      -0.00078431       0.00150830
H        1.47679523       8.90319593      17.46681238      -0.00398089       0.00173587      -0.00624338
O        1.22236597       4.76462578      20.17552141      -0.00550790       0.00773713       0.00142415
O        1.15786630       3.23675749      18.50176267       0.00249632       0.00138147       0.00105767
H        0.74560725       5.84983800      14.53781346       0.00438688      -0.00430212      -0.00190652
O        1.10722134       8.09173208      13.62132797       0.00277906       0.00084999      -0.00409071
O        1.12438592       9.74349334      15.19756282      -0.00533902      -0.00231655      -0.00737087
N        1.67913372       7.24502536      19.51948151       0.00134025       0.00350077      -0.00421976
H        1.81333208       8.21766847      19.76099892       0.00884111       0.00403442      -0.00726373
H        1.64907807       6.53768724      20.25672257      -0.00279494       0.00679291      -0.00193305
C        0.94231727      17.65395316       5.11488788      -0.00042082      -0.00095941       0.00052993
C        1.30309687      16.30327719       4.79683305      -0.00025571      -0.00090355       0.00120003
C        0.56048817      17.98145891       6.41249254      -0.00128067      -0.00097894       0.00032867
C        1.20439514      15.32961983       5.81522586      -0.00015238      -0.00044792       0.00066914
C        0.99019542      18.71492862       4.07799950      -0.00143841       0.00053361      -0.00149072
C        0.48844834      17.01065643       7.40593086      -0.00111477      -0.00111519       0.00026122
C        0.80984757      15.67947432       7.10601061       0.00009855       0.00013938      -0.00051709
C        0.78568857      14.64481991       8.18291586      -0.00085336       0.00121289      -0.00189929
H        0.31799072      19.01651161       6.64446229      -0.00174199      -0.00061765       0.00023133
H        1.46926037      14.29431734       5.59485937       0.00022581       0.00082392       0.00109725
O        1.00657786      18.37831428       2.84067870      -0.00004661      -0.00413731      -0.00154395
O        0.95752334      19.91855122       4.50535733      -0.00209927      -0.00028213       0.00318029
H        0.19283755      17.27321418       8.41906139      -0.00101663      -0.00083957      -0.00031873
O        0.76763234      15.07181773       9.38470946      -0.00124263      -0.00250993      -0.00094440
O        0.83003595      13.41478823       7.81177113      -0.00062663       0.00018394       0.00310599
N        1.75999694      15.97702296       3.56966302       0.00036688      -0.00145950       0.00144734
H        2.02889226      15.02594481       3.35604988       0.00076658       0.00124799       0.00107582
H        1.71002204      16.66519582       2.81614690       0.00072785      -0.00140921       0.00024360
C        7.30266826      11.83206796      17.71818416       0.00160552       0.00067594      -0.00005506
C        7.65456994      12.24293977      16.38677818      -0.00143424       0.00217368      -0.00065851
C        5.96186343      11.64162417      18.03757306       0.00012566      -0.00237741      -0.00242373
C        6.63723692      12.27963527      15.40475166      -0.00091021       0.00277395      -0.00281130
C        8.34999082      11.61079346      18.75398423      -0.00183549      -0.00048647       0.00462954
C        4.96759412      11.74544523      17.06678032      -0.00304298      -0.00235551      -0.00081581
C        5.31037416      12.01191741      15.73165801      -0.00170862      -0.00067290      -0.00101157
C        4.26347991      11.94740577      14.65756609      -0.00069675      -0.00062776      -0.00000284
H        5.69621412      11.38025753      19.06006849       0.00186040      -0.00263269      -0.00311923
H        6.89569773      12.51774865      14.37238645      -0.00022342       0.00538219      -0.00463633
O        7.93780596      11.49586574      19.95944222       0.00470929       0.00233273      -0.00297343
O        9.57207472      11.50549780      18.38541322       0.00471989       0.00090606       0.00329895
H        3.92302960      11.59023203      17.32716313      -0.00484468      -0.00427050       0.00073152
O        4.66000205      11.90505265      13.44252132      -0.00165179       0.00030023      -0.00018729
O        3.05242768      11.88320016      15.06309146      -0.00098957      -0.00340441      -0.00076174
N        8.91701774      12.60991483      16.08634867      -0.00010702       0.00354923       0.00139407
H        9.66629486      12.44600427      16.76004782      -0.00176465       0.00301781      -0.00050798
H        9.15510205      12.92989647      15.15682050      -0.00089534       0.00640884      -0.00055235
C       17.62095908      11.86694657       7.39445302      -0.00317715      -0.00371750       0.00332563
C       17.93359818      12.44447359       6.11688418       0.00652257       0.00284114       0.00634179
C       16.30455484      11.52926116       7.68923088      -0.00487081       0.00012726       0.00340586
C       16.92114871      12.46394549       5.13063755       0.01012341       0.00341600       0.00515072
C       18.69202963      11.62407593       8.39859854      -0.00259882      -0.00226964      -0.00221965
C       15.30655569      11.62137870       6.72127735      -0.00483482      -0.00163345       0.00624811
C       15.62958100      12.02740925       5.41802517       0.01353713       0.00055480       0.01076598
C       14.61142983      11.92506562       4.32428489      -0.04629838       0.00519053      -0.00023000
H       16.06645938      11.15607829       8.68407218       0.00127458      -0.00068199       0.00068850
H       17.15855703      12.81870567       4.12694016      -0.01173441       0.00041960      -0.00498787
O       18.31800363      11.47321801       9.61117453      -0.00102407      -0.00031931      -0.00177103
O       19.89981075      11.53373539       7.98333050      -0.00298492       0.00233244      -0.00419324
H       14.28095309      11.34507792       6.95577262      -0.00856440      -0.00270777       0.00359995
O       15.04382403      11.90291390       3.12363988       0.01023506      -0.00980741      -0.01263526
O       13.38643504      11.81247515       4.69064909       0.05654478       0.00490007      -0.01350063
N       19.14977202      12.97875313       5.87813270      -0.00028700       0.00103505      -0.00439369
H       19.92514010      12.80605786       6.51870925      -0.00977205      -0.00333043       0.00225144
H       19.35004582      13.43685379       4.99837046      -0.00760455       0.00071208      -0.00303882
C       15.85504017      11.16985843      17.83336838       0.00195129      -0.00279878      -0.00114719
C       17.23796140      10.98606452      18.18082169      -0.00106041      -0.00220605       0.00022370
C       15.49361026      11.25928617      16.49238394      -0.00051462      -0.00116209       0.00084184
C       18.20005854      11.04261894      17.14685052      -0.00183460      -0.00034391      -0.00022334
C       14.80919424      11.30703713      18.88176109       0.01264898      -0.00213946      -0.00412099
C       16.45662066      11.28267207      15.48730804      -0.00405815       0.00024438      -0.00077192
C       17.81884052      11.22723061      15.82017510      -0.00294722      -0.00033649      -0.00009670
C       18.86221047      11.42187215      14.76479691      -0.00187896       0.00179339       0.00053123
H       14.43891953      11.33211663      16.23550286       0.00020740      -0.00143419       0.00055607
H       19.25936232      10.95804212      17.39194457      -0.00114724      -0.00102810      -0.00132203
O       13.60222578      11.36471141      18.47030721       0.00451356      -0.00221523       0.00546300
O       15.17149129      11.41654668      20.10822075      -0.01850279       0.00557869      -0.00364981
H       16.16655789      11.37124487      14.44318982      -0.00284085      -0.00022332      -0.00214374
O       20.07167928      11.55138618      15.15133255      -0.00161775       0.00172365      -0.00156534
O       18.43887466      11.48817130      13.55884502      -0.00062734       0.00118074      -0.00054846
N       17.61165285      10.75750160      19.45576126       0.00021010      -0.00187845      -0.00256725
H       18.58403604      10.60708850      19.68914345      -0.00118113      -0.00238787      -0.00397226
H       16.92067133      10.84614809      20.20303478       0.00087634      -0.00348411      -0.00056847
C        5.24791378      11.35322492       7.22994653       0.00005137      -0.00187568      -0.00382349
C        4.92132893      11.03243167       5.86746432       0.00189864      -0.00561166      -0.00075053
C        6.57111228      11.61960608       7.56914225       0.00214526      -0.00127153      -0.00166678
C        5.95002443      11.08631529       4.89973586       0.00172668      -0.00332412       0.00188669
C        4.19117713      11.43572838       8.27501474       0.00266568      -0.00093597      -0.00388598
C        7.57245029      11.64822651       6.60149902       0.00364293       0.00200183       0.00670715
C        7.25647859      11.41209895       5.25422974      -0.00438125       0.00303320       0.00808651
C        8.30065182      11.54713539       4.19040101       0.03775601      -0.02452335       0.00525176
H        6.81599871      11.82225509       8.61003626      -0.00300285      -0.00530167      -0.00458717
H        5.71393129      10.88311751       3.85459337       0.00869522       0.00080823      -0.00125581
O        4.58729365      11.56582997       9.48205950      -0.00394359      -0.00138510      -0.00171057
O        2.96189354      11.42898402       7.90528695       0.00194787      -0.00042785       0.00022401