504
Lattice="20.983811735302154 0.0 0.0 0.0 20.983811735302154 0.0 0.0 0.0 20.983811735302154" Properties=species:S:1:pos:R:3:forces:R:3 energy=-3715.2043605774224 stress="0.0002964392210063134 1.1989224250428006e-05 0.0001837771455473994 1.1989224250428006e-05 -0.0004106453018374789 1.6786380887710147e-05 0.0001837771455473994 1.6786380887710147e-05 0.000162999341960012" pbc="T T T"
C        7.28419081       0.85637628       7.23844660      -0.00118825      -0.00133127       0.00072696
C        6.01008216       0.27313742       7.55415803       0.00086494      -0.00115972      -0.00101771
C        7.56487341       1.22000991       5.92556604      -0.00592309      -0.00294197       0.00011392
C        5.01938532       0.25072544       6.54567740      -0.00291258      -0.00166053       0.00201833
C        8.30699708       1.06451179       8.29929606       0.00038472      -0.00030458       0.00031571
C        6.59123532       1.13278007       4.93292258      -0.00686148      -0.00244570       0.00121463
C        5.29613926       0.69760204       5.25616938      -0.00921002       0.00679656       0.00477944
C        4.20545241       0.76428620       4.22945406       0.03327339      -0.00113750       0.00135267
H        8.55473854       1.60507160       5.68512612      -0.00589693      -0.00224764      -0.00090761
H        4.02011419      -0.11788269       6.78038614      -0.00098131      -0.00307191       0.00680131
O        9.51168049       1.22414221       7.90198889       0.00134975      -0.00090903       0.00056142
O        7.92022799       1.11750631       9.51868312       0.00045310       0.00025134      -0.00036985
H        6.81767927       1.42857290       3.91070543      -0.00576966      -0.00387266       0.00335930
O        2.99450382       0.74733642       4.63510663      -0.02977031       0.00238176       0.00342644
O        4.59770595       0.88874454       3.01487507      -0.01253615      -0.00862403       0.00753188
N        5.77922740      -0.26685282       8.76923714       0.00215620       0.00001400       0.00227991
H        4.89857006      -0.72133331       8.97352750       0.00111193      -0.00016970       0.00234488
H        6.42647483      -0.09194852       9.53867293       0.00150636      -0.00034672       0.00410440
C       17.87450474       0.78605518      17.63181258       0.00119287       0.00042792      -0.00192391
C       16.60811708       0.18082031      17.94065051       0.00049046       0.00059807       0.00092195
C       18.15264793       1.15307835      16.31940910       0.00046120       0.00068916      -0.00187688
C       15.61523535       0.16134182      16.93391813       0.00073976       0.00040567       0.00076094
C       18.88229790       1.02464852      18.70167054       0.00193449       0.00046885       0.00022394
C       17.17877165       1.06272309      15.32591579      -0.00072754      -0.00004695      -0.00031843
C       15.88477888       0.62538048      15.64869671       0.00008576       0.00046779       0.00122210
C       14.78412974       0.71325770      14.63262289       0.00061626      -0.00010547       0.00259818
H       19.13951304       1.54706699      16.08098823       0.00154658       0.00085324      -0.00120905
H       14.61884359      -0.21623671      17.16814889       0.00193810       0.00083015       0.00277225
O       20.09291594       1.19661745      18.32893790       0.00179106       0.00042697      -0.00689998
O       18.47006779       1.09143577      19.91308390      -0.00589771      -0.00088574      -0.00123492
H       17.40150149       1.36214949      14.30380554      -0.00031090       0.00022655       0.00079432
O       13.58071415       0.72170112      15.06212473       0.00035190      -0.00023691       0.00151266
O       15.15258383       0.82946413      13.41098263      -0.00057111      -0.00072898       0.00240520
N       16.38290617      -0.38069441      19.14700679       0.00042201       0.00076187       0.00074459
H       15.51146384      -0.85788224      19.33894369       0.00005446       0.00166728       0.00039717
H       17.02070098      -0.21023343      19.92436254       0.00181721      -0.00099124       0.00263872
C       17.76232841       1.34889593       5.27079649       0.00875372       0.00029778      -0.00297860
C       16.44728863       1.84181382       4.96786837       0.00635950      -0.00113658      -0.00253158
C       18.07951307       1.00047299       6.57962834      -0.00298530      -0.00211322      -0.00460634
C       15.47147218       1.80657201       5.98963373       0.00024710       0.00004997      -0.00078228
C       18.78563553       1.19556453       4.20321675      -0.02536997       0.00265285      -0.00158248
C       17.11176705       1.01156086       7.58069889      -0.00052138       0.00095431      -0.00051409
C       15.79123461       1.37552431       7.27485771      -0.00153001       0.00188346       0.00253956
C       14.71550128       1.25822819       8.31048171      -0.00284131       0.00068831       0.00324985
H       19.09874597       0.69695467       6.81074803      -0.00352116      -0.00402361       0.00439187
H       14.44850531       2.11215475       5.76681319      -0.00089941       0.00395738       0.00110335
O       19.98656944       1.00221618       4.59327298       0.02703986       0.01297287      -0.00440119
O       18.40406701       1.20704676       2.97793947       0.00707795      -0.00365394       0.01160230
H       17.36307556       0.71171087       8.59564235      -0.00414405       0.00191852       0.00166964
O       13.50525443       1.27032680       7.90418630      -0.00275431      -0.00070677       0.00079478
O       15.10767519       1.10837766       9.52131390       0.00013736       0.00009834       0.00196842
N       16.15938971       2.34765764       3.75061692      -0.01203542       0.00323725       0.00319733
H       16.82027721       2.22498975       2.98251308      -0.00059617       0.00156023      -0.00487300
H       15.24212078       2.72539587       3.55218734       0.00668863      -0.00096476       0.00628975
C        7.39531843       1.43505924      15.89598021      -0.00021841      -0.00002102       0.00195290
C        6.10865893       2.00409591      15.60368592       0.00000962       0.00133155       0.00187197
C        7.68874999       1.03809671      17.19620328       0.00162500      -0.00178727       0.00070997
C        5.12254511       1.97696544      16.61585447       0.00102183       0.00061165       0.00263140
C        8.40229408       1.24937048      14.81675028      -0.00146816       0.00043655       0.00102298
C        6.71413141       1.06415438      18.19195054       0.00230915      -0.00157764       0.00132752
C        5.41098186       1.48417478      17.88629607       0.00122524      -0.00147559       0.00164549
C        4.31544312       1.34884974      18.89961217      -0.00003014      -0.00188110       0.00384313
H        8.68864026       0.67053811      17.42142821       0.00104831      -0.00353426      -0.00077758
H        4.11599256       2.33420577      16.39450397       0.00044435       0.00216653       0.00609369
O        9.61340368       1.06171297      15.18344843      -0.00113981       0.00039486       0.00029747
O        7.99187391       1.23293752      13.60414434      -0.00206263       0.00088681       0.00124617
H        6.94221335       0.72122906      19.19907633       0.00325233      -0.00053136       0.00143490
O        3.11327999       1.35887864      18.46983316       0.00177621      -0.00663315      -0.00920579
O        4.68274753       1.18453437      20.11732883       0.01109567       0.00570213       0.00233772
N        5.85505443       2.56749093      14.40412721      -0.00113678       0.00172484       0.00274616
H        6.50040115       2.42218971      13.62707981      -0.00095815      -0.00021754       0.00327652
H        4.96611857       3.01415294      14.21964831      -0.00153604       0.00193779       0.00390092
C        5.33142066       5.30212023       1.11102614       0.00032831       0.00126431      -0.00109180
C        6.69116214       4.95554468       0.80107855       0.00235571       0.00130674      -0.00096439
C        5.01306705       6.62002797       1.42587266      -0.00053809       0.00018041       0.00029234
C        7.67398498       5.96640866       0.88551523       0.00088793       0.00262138       0.00056647
C        4.26550270       4.26680698       1.11089992       0.00348230       0.00098148      -0.00254552
C        5.99375146       7.60779187       1.46685338      -0.00318977       0.00136755      -0.00002370
C        7.33101937       7.27902837       1.19666209      -0.00299815       0.00184700       0.00092480
C        8.38933708       8.33540629       1.18996889      -0.00336668       0.00119044       0.00141292
H        3.97803823       6.87241245       1.64821668       0.00002245      -0.00254461      -0.00045104
H        8.71783591       5.71781378       0.68972792       0.00147499       0.00388525       0.00085155
O        4.61494583       3.03378495       1.08225854       0.01251409      -0.00194184       0.00933024
O        3.05769086       4.67666769       1.19017970      -0.00626324      -0.00461422      -0.00633634
H        5.73725575       8.63794617       1.70358487      -0.00427263       0.00160940      -0.00172185
O        7.97901388       9.54579724       1.12944311      -0.00123660       0.00156248      -0.00199744
O        9.60699511       7.94741845       1.19717118      -0.00285592       0.00406433       0.00557952
N        7.02811718       3.70860460       0.41028000       0.00549965       0.00405705      -0.00531488
H        6.32664847       2.96648850       0.44501735       0.01020717      -0.00164424       0.00268468
H        7.99069677       3.47328291       0.20898577       0.00445306       0.00769745      -0.01302204
C       15.72725636      15.88901177       0.99938584      -0.00141044       0.00032425      -0.00079861
C       15.41748988      17.21389638       1.45080380      -0.00176857       0.00011546      -0.00050645
C       17.00881494      15.59058369       0.54845939      -0.00135639      -0.00038443      -0.00005009
C       16.41548232      18.20597044       1.33219116      -0.00178061       0.00051847       0.00055655
C       14.68727764      14.82860416       1.02184027      -0.00015722       0.00048282      -0.00129514
C       17.98638198      16.57738459       0.46577401      -0.00130972      -0.00106658       0.00070774
C       17.68381228      17.89231570       0.84645362      -0.00160510      -0.00067030       0.00085643
C       18.73649990      18.94981631       0.78458638      -0.00119478       0.00023646      -0.00065728
H       17.23758405      14.56768261       0.25519357       0.00006320       0.00036613      -0.00060555
H       16.19676723      19.22724647       1.64762871      -0.00136535       0.00132731      -0.00012958
O       13.45731039      15.18938992       0.99788135      -0.00008781       0.00094171      -0.00116709
O       15.09955244      13.61977425       1.00583029       0.00032119       0.00053023      -0.00082308
H       18.98695302      16.34082753       0.11102527      -0.00022083       0.00023248       0.00020023
O       19.94739734      18.55011179       0.73290125      -0.00436494      -0.01575671      -0.00723991
O       18.34348004      20.17298213       0.83329797      -0.01175205       0.00001213      -0.00151521
N       14.22156550      17.49553967       2.01107617      -0.00168952       0.00004493      -0.00098737
H       13.45494121      16.82537871       1.93631137      -0.00066796      -0.00099817      -0.00162070
H       14.02537686      18.42329666       2.36278352      -0.00084871      -0.00013877      -0.00103734
C        7.18607299      15.76106669       0.72709529      -0.00177583       0.00059178      -0.00103789
C        5.83535304      15.43297242       0.36904855      -0.00137070       0.00039981      -0.00287004
C        7.50681084      17.06527940       1.09134743      -0.00213238       0.00050498      -0.00071314
C        4.85350554      16.44243793       0.47837814      -0.00174783      -0.00027319      -0.00253922
C        8.24591612      14.72024549       0.72327156      -0.00162840       0.00064985       0.00021748
C        6.52501131      18.04816370       1.17758178      -0.00141516       0.00092367       0.00023239
C        5.18973638      17.73205066       0.88581285      -0.00106912      -0.00113947       0.00058091
C        4.13132103      18.78583381       0.97342114       0.00090613      -0.00069460      -0.00106348
H        8.54379671      17.30793101       1.31541489      -0.00277619       0.00132625       0.00037207
H        3.81603143      16.21050499       0.23415935      -0.00225492       0.00101620      -0.00344793
O        7.88900171      13.48752231       0.76057382      -0.00229892       0.00064593       0.00194556
O        9.45316646      15.13127173       0.74686431      -0.00179304       0.00152029      -0.00025700
H        6.78117645      19.06347207       1.47155040      -0.00199553       0.00166155       0.00057822
O        4.53975574      19.99276508       1.05210945       0.01609549      -0.00120594      -0.00373860
O        2.91046947      18.40044868       0.92003423       0.00298551      -0.01394990      -0.00494733
N        5.51739475      14.20209860      -0.08742429      -0.00059473       0.00110708      -0.00419745
H        4.56760925      13.98025184      -0.35543349       0.00038222       0.00124223      -0.00599441
H        6.19821195      13.44623768       0.00408592       0.00133110       0.00302053      -0.00300064
C       15.87136653       7.41643980       1.03672558       0.00052915      -0.00225359      -0.00053286
C       15.57796938       6.13225868       0.46907921       0.00423266      -0.00364140       0.00030803
C       17.14541615       7.68445154       1.52539628       0.00148215      -0.00267763      -0.00004558
C       16.57156265       5.13180615       0.54855306       0.00447194      -0.00066094      -0.00039726
C       14.81424055       8.45867105       1.09824700      -0.00117782       0.00019136      -0.00024195
C       18.12468033       6.69420739       1.55387830       0.00215450      -0.00117623      -0.00095956
C       17.82705690       5.40576814       1.08785489       0.00267203       0.00184796      -0.00179935
C       18.85959491       4.32416703       1.13723924      -0.01962598       0.00126027       0.00342969
H       17.36355258       8.68254258       1.90200984       0.00017129      -0.00071581      -0.00002216
H       16.35601440       4.13284199       0.16633445       0.00124495       0.00235687       0.00007317
O       13.59565344       8.06233939       1.11949425      -0.00117234      -0.00022929      -0.00070436
O       15.19513180       9.67557643       1.17832612       0.00040944       0.00015220       0.00037266
H       19.11972108       6.90414547       1.94037374      -0.00017859      -0.00013677      -0.00029905
O       20.08115791       4.68897707       1.21150656       0.00877639      -0.00091060       0.01386237
O       18.43113372       3.11542064       1.06198386      -0.00127374      -0.00192448      -0.00675101
N       14.40614321       5.89417406      -0.15864318       0.00275789      -0.00116357      -0.00104225
H       14.23319349       4.99984334      -0.59875263       0.00074489       0.00110981      -0.00201918
H       13.62651384       6.54532831      -0.06396623       0.00035936      -0.00004391      -0.00021748
C        0.96990495       5.19070190       5.42734640      -0.00098091      -0.01435761      -0.02856569
C        0.98987766       4.84180370       6.82010861      -0.00552185      -0.01121192       0.01957445
C        1.01219817       6.53155423       5.05493481      -0.00849751      -0.01573879       0.01095453
C        1.06866665       5.88456706       7.77107726      -0.00180182       0.00952298       0.00795014
C        0.94439156       4.14410270       4.37284604       0.01228346       0.06034226      -0.01267167
C        1.07466919       7.53928973       6.01217384      -0.00606988       0.02300364      -0.02380081
C        1.10241951       7.22123624       7.37751966       0.00205222       0.00382677      -0.01335433
C        1.12396689       8.30762979       8.40799336       0.00198458      -0.02817387       0.07510727
H        0.99370148       6.78997617       3.99745572       0.00274810      -0.02643974       0.02968470
H        1.09536225       5.63269630       8.83108953      -0.00074567       0.04009729       0.03612441
O        0.90824999       2.90451166       4.70535898       0.05582534       0.02234628      -0.02219255
O        1.00453764       4.57543266       3.17097732      -0.02752532      -0.08499151      -0.00146126
H        1.08762212       8.58277410       5.71266765       0.00030513       0.04641207      -0.03157699
O        1.08145031       9.51643131       7.97841735      -0.03783722      -0.01341084      -0.06441182
O        1.13689313       7.94554582       9.63076723       0.04979131      -0.03072730       0.03320768
N        0.93823308       3.55430893       7.21767966      -0.01176633       0.01836151      -0.00754281
H        0.88446176       2.81400483       6.51298367      -0.00045222       0.04311813       0.02993521
H        0.92929349       3.31865129       8.20039482       0.01174397      -0.00547219       0.02059253
C        0.94157637      17.98190428      17.58410551       0.00132824       0.00128483      -0.00046542
C        0.40966420      18.27667453      16.28602393       0.00040791       0.00117759       0.00190769
C        1.43514004      16.71294738      17.86771157       0.00062103       0.00126320       0.00184732
C        0.48230134      17.26996275      15.29832043      -0.00014036       0.00073976       0.00160663
C        0.93233745      19.01530288      18.64793025       0.00064167       0.00068859      -0.00288266
C        1.47197427      15.72780237      16.88689969       0.00032944       0.00071191       0.00236383
C        1.00050753      16.01157751      15.59835001       0.00099432       0.00003214       0.00187192
C        1.01833000      14.93862825      14.55689225       0.00079252      -0.00224227      -0.00032614
H        1.79459458      16.49738649      18.87211410      -0.00068434       0.00310608       0.00298695
H        0.11152914      17.47242092      14.29236332       0.00008133       0.00353460       0.00252187
O        0.96148333      20.25076086      18.30524900      -0.00336246       0.00101925      -0.00420487
O        0.95149489      18.58458328      19.84929409       0.00069922      -0.00891039      -0.00495468
H        1.85777525      14.73511029      17.10821915       0.00174004       0.00140826       0.00404943
O        1.06164672      13.73936152      14.98991291       0.00198191      -0.00411112      -0.00874281
O        0.95181854      15.30899733      13.33278866      -0.00228768      -0.00357262       0.00022814
N       -0.18130868      19.46700107      16.03953200      -0.00175231       0.00197672      -0.00066642
H       -0.05683087      20.23590026      16.69891252      -0.00163356       0.00478066       0.00084549
H       -0.58754685      19.66616009      15.13449727       0.00012647       0.00163954       0.00265978
C        1.21575089       5.49747567      17.90076745      -0.00308460       0.00444538      -0.00350946
C        1.41527515       6.87592590      18.25532815      -0.00138927       0.00655686      -0.00543018
C        0.98503113       5.15672686      16.57108298       0.00080288       0.00369186      -0.00460551
C        1.34474625       7.84622807      17.23002027      -0.00268619       0.00384944      -0.00944454
C        1.22019191       4.43141735      18.93360065      -0.00427202      -0.00082485       0.00632091
C        0.92448006       6.12973522      15.57820922       0.00231228      -0.00045828      -0.00719464
C        1.11022777       7.48119866      15.90624297       0.00018535      -0.00003335      -0.00329967
C        1.09882567       8.52770512      14.83420576      -0.00104411      -0.01181323      -0.01780185
H        0.84600243       4.10920947      16.31247387       0.00349183       0.00235451       0.00029967
H        1.48446607       8.89908109      17.47762685      -0.00657057       0.00639122      -0.00809941
O        1.24384801       4.75430670      20.17492180      -0.02824588       0.00878155       0.00727162
O        1.14496955       3.23148391      18.49940839       0.01646773      -0.00088596      -0.00756851
H        0.73953537       5.85474077      14.54272423       0.00366743      -0.00270153      -0.00454133
O        1.09170077       8.10015733      13.62872942       0.01813721       0.00260260       0.00532801
O        1.14054673       9.74742237      15.20973554      -0.01831222      -0.00444988      -0.02380409
N        1.67603807       7.23710741      19.52732673       0.00176722       0.00148780      -0.00710597
H        1.79238197       8.21032502      19.77526178       0.01971953       0.00872268      -0.01194044
H        1.66100368       6.52410034      20.25983973      -0.01237344       0.01366727      -0.00151341
C        0.94366353      17.65500373       5.11423381      -0.00156036      -0.00170123       0.00400666
C        1.30318563      16.30436872       4.79519184       0.00085629      -0.00546960       0.00325183
C        0.56224162      17.98279858       6.41170749      -0.00111538      -0.00406361       0.00338218
C        1.20443287      15.33069855       5.81354767      -0.00016101      -0.00350022       0.00383254
C        0.99165366      18.71685458       4.07931693      -0.00079092      -0.00734426      -0.01167716
C        0.48989789      17.01192644       7.40477866      -0.00120296      -0.00468974       0.00428477
C        0.81043754      15.68049282       7.10467805      -0.00019859      -0.00063380      -0.00087069
C        0.78596836      14.64623636       8.18228486      -0.00097869       0.00933524      -0.00641641
H        0.32057793      19.01803836       6.64348920      -0.00269832      -0.00073867       0.00343191
H        1.46884546      14.29525464       5.59315259      -0.00026262       0.00184112       0.00075204
O        1.00703326      18.38290898       2.84153198       0.00287978      -0.02372912      -0.00582934
O        0.95974813      19.91958440       4.50850079      -0.00305147       0.01378262       0.00537845
H        0.19489924      17.27499640       8.41791059      -0.00144680      -0.00227197       0.00076618
O        0.76784258      15.07481010       9.38352418       0.00185559      -0.01423688      -0.00407555
O        0.83028234      13.41574713       7.81179405      -0.00239880       0.00896342       0.00393340
N        1.75913741      15.97834270       3.56751834       0.00089081      -0.00717949       0.00306816
H        2.02769283      15.02722842       3.35320733      -0.00089645       0.00447907       0.00331871
H        1.70931724      16.66630418       2.81407997       0.00048187       0.00417902      -0.00100840
C        7.30225117      11.83180409      17.71999603       0.00150257       0.00018832      -0.00069555
C        7.65479887      12.23941444      16.38762367       0.00034314       0.00218381      -0.00010853
C        5.96086833      11.64395497      18.03914807       0.00175781      -0.00158303      -0.00162929
C        6.63804626      12.27580496      15.40504869      -0.00048542       0.00282824       0.00028901
C        8.34954791      11.61113093      18.75658219       0.00149792       0.00105476      -0.00055454
C        4.96674932      11.74781951      17.06806347       0.00075998      -0.00146661      -0.00135034
C        5.31096806      12.01101747      15.73249648      -0.00094680       0.00306172      -0.00090861
C        4.26477023      11.95005404      14.65808460      -0.00252740       0.00018779       0.00177822
H        5.69428376      11.38517224      19.06202355       0.00344412      -0.00350545      -0.00168812
H        6.89693860      12.51213261      14.37221440      -0.00027434       0.00332970       0.00026465
O        7.93810286      11.49589322      19.96183263       0.00169380       0.00250923      -0.00058949
O        9.57196201      11.50703666      18.38746339       0.00158946      -0.00120904       0.00008365
H        3.92145109      11.59602394      17.32835365       0.00223189      -0.00494564      -0.00041956
O        4.66178004      11.90411503      13.44314327      -0.01102321       0.00243854      -0.00071084
O        3.05371112      11.89329594      15.06396826      -0.00499324      -0.01033245      -0.01367565
N        8.91737535      12.60436647      16.08568431       0.00009653       0.00335779       0.00146506
H        9.66664986      12.44116383      16.75946948       0.00040597       0.00415291      -0.00010867
H        9.15468493      12.92150927      15.15495197       0.00221108       0.00622572       0.00193172
C       17.62132936      11.86543060       7.39368656      -0.00084758      -0.00004387       0.00064095
C       17.93522680      12.44345351       6.11673899      -0.00008370       0.00142331      -0.00050095
C       16.30419618      11.52898403       7.68807310       0.00074460       0.00077364       0.00019485
C       16.92403156      12.46299908       5.12963063       0.00084585       0.00045006       0.00011483
C       18.69238345      11.62403011       8.39846930       0.00268918       0.00014509       0.00094786
C       15.30682913      11.62090740       6.71933223       0.00117597       0.00094392      -0.00253885
C       15.63333636      12.02587340       5.41596223       0.00074930       0.00075933      -0.00122922
C       14.61798808      11.92633580       4.31872258       0.00100613       0.00180355      -0.00054373
H       16.06543452      11.15692551       8.68319024       0.00096733      -0.00099173       0.00049585
H       17.15954136      12.81762995       4.12529988       0.00110672       0.00086380       0.00202203
O       18.31720338      11.47713062       9.61099476       0.00987791       0.00089747       0.00038679
O       19.90033021      11.53278066       7.98263312      -0.00488783       0.00731468      -0.00110865
H       14.28038163      11.34578725       6.95306146       0.00239353       0.00040150      -0.00145263
O       15.05203763      11.89416877       3.11849009       0.00045030       0.00110160      -0.00057913
O       13.39381070      11.82485471       4.68541548       0.00086084       0.00312210      -0.00048309
N       19.15058862      12.97839703       5.87714604       0.00170459       0.00080253       0.00068425
H       19.92565009      12.80595669       6.51781439       0.00086222      -0.00127193       0.00290282
H       19.34924876      13.43508204       4.99624824       0.00005422       0.00136931       0.00153511
C       15.85831471      11.17203964      17.83209405      -0.00306696      -0.00324857       0.00064211
C       17.24093251      10.98869209      18.18108460      -0.00267594      -0.00377430      -0.00144612
C       15.49788496      11.26096983      16.49080269      -0.00385378      -0.00238417       0.00103431
C       18.20395276      11.04375973      17.14809892      -0.00349398      -0.00080271      -0.00191548
C       14.81137428      11.30792549      18.87943956      -0.00207900      -0.00127835       0.00228412
C       16.46141813      11.28292570      15.48648117      -0.00420684      -0.00000341       0.00133302
C       17.82295921      11.22450691      15.82086444      -0.00465210       0.00497916      -0.00022108
C       18.86568252      11.41762534      14.76562261      -0.00337704       0.00693912       0.00271771
H       14.44375172      11.33398189      16.23218318      -0.00427145      -0.00052189       0.00442892
H       19.26328777      10.96105802      17.39400027      -0.00456847      -0.00363946      -0.00182160
O       13.60429050      11.36465541      18.46740397      -0.00250665      -0.00019862       0.00293106
O       15.17098451      11.41709250      20.10648265      -0.00077215      -0.00060673       0.00180773
H       16.17314711      11.37326144      14.44193217      -0.00618397      -0.00368700       0.00256452
O       20.07560951      11.54223940      15.15236030      -0.00191714       0.00981826      -0.01302166
O       18.44027959      11.48884053      13.56065168       0.01280334      -0.00020119      -0.00001927
N       17.61371142      10.76109269      19.45628692      -0.00146102      -0.00244709      -0.00062986
H       18.58593935      10.61013505      19.68990183      -0.00173246      -0.00201579      -0.00032933
H       16.92170675      10.84806118      20.20269278       0.00055225      -0.00163660       0.00251010
C        5.24971587      11.35694203       7.22881758       0.00309383      -0.00270925       0.00272921
C        4.92435704      11.03707013       5.86596397       0.00337250      -0.00236638       0.00071152
C        6.57230545      11.62411101       7.56927359       0.00430374      -0.00268029       0.00030203
C        5.95431395      11.09071163       4.89978948       0.00071965      -0.00333903      -0.00030192
C        4.19329305      11.43739221       8.27408819      -0.01750653       0.00290611       0.00253883
C        7.57511692      11.65336465       6.60347266       0.00477972      -0.00286771      -0.00378240
C        7.26052252      11.41294112       5.25647222      -0.00114093      -0.00348092      -0.00044607
C        8.30575913      11.53603644       4.19239520      -0.00113191      -0.00302892       0.00094945
H        6.81521812      11.82551422       8.61058941       0.00196456      -0.00041766       0.00307446
H        5.72094531      10.88994163       3.85353104      -0.00039554      -0.00294272       0.00283298
O        4.58770683      11.56634216       9.48186552       0.00093049      -0.00590087      -0.00065250
O        2.96404951      11.43023370       7.90331830       0.01068495       0.00725611       0.00308249