504
Lattice="20.98473547790495 0.0 0.0 0.0 20.98473547790495 0.0 0.0 0.0 20.98473547790495" Properties=species:S:1:pos:R:3:forces:R:3 energy=-3715.1995223898043 stress="0.0003264292550876433 2.729068108913199e-05 0.00018230287399910949 2.729068108913199e-05 -0.0004237713797270366 4.955004505452596e-06 0.00018230287399910949 4.955004505452596e-06 0.00018694169965155754" pbc="T T T"
C        7.27704204       0.85955288       7.24153448      -0.00006147      -0.00126164       0.00128464
C        6.00424832       0.27499316       7.56047989       0.00011256      -0.00074648       0.00329166
C        7.55253663       1.22767547       5.92909642       0.00057485      -0.00092392       0.00136857
C        5.00958894       0.25410402       6.55582369       0.00085880      -0.00150819       0.00341590
C        8.30403847       1.06360523       8.29895643       0.00052782      -0.00089525       0.00239141
C        6.57558738       1.14194006       4.94018999       0.00108630      -0.00153904       0.00113508
C        5.28309223       0.70351004       5.26626858       0.00209557      -0.00242956       0.00345708
C        4.19597037       0.76576550       4.23737164      -0.00099381      -0.00355519       0.00104581
H        8.54071937       1.61432732       5.68522809       0.00076594      -0.00132132       0.00230014
H        4.01168740      -0.11655270       6.79343051      -0.00007885      -0.00065612       0.00123329
O        9.50835601       1.21977353       7.89910696      -0.00037819      -0.00119656       0.00139050
O        7.92031142       1.11695938       9.51933258       0.00003922      -0.00044879       0.00220925
H        6.79732398       1.44000572       3.91779937       0.00072355      -0.00094998       0.00079541
O        2.98336901       0.74969546       4.64027948       0.00192038      -0.00499630       0.00709508
O        4.58873324       0.88652760       3.02326274       0.00070412      -0.00563632       0.00354672
N        5.77925271      -0.26785895       8.77549730      -0.00102073      -0.00109773       0.00247007
H        4.90002112      -0.72365850       8.98276346      -0.00122628      -0.00100814       0.00174864
H        6.42885323      -0.09247175       9.54297192      -0.00037457      -0.00099872       0.00122362
C       17.89132730       0.78284021      17.62052037       0.00478134       0.00311007       0.00419468
C       16.62289796       0.18050100      17.92872044      -0.00605041      -0.00115189      -0.00190582
C       18.16778255       1.15179697      16.30832309       0.00134014       0.00214258      -0.00262983
C       15.62905437       0.16429127      16.92237307      -0.00036327       0.00381018      -0.00525863
C       18.89854637       1.02576890      18.69080545      -0.00679359       0.00527310       0.00883085
C       17.19264891       1.06500136      15.31556322      -0.00426322       0.00106649      -0.00402964
C       15.89757642       0.63032178      15.63758375      -0.00331831       0.00199973      -0.00488769
C       14.79549392       0.72307573      14.62216529       0.00075648      -0.00170369       0.00356233
H       19.15449172       1.54556611      16.06947604       0.00639237       0.00127143      -0.00158301
H       14.63199341      -0.21171932      17.15676868       0.00407587       0.00142446       0.00266770
O       20.10772754       1.21554680      18.32146312       0.01106678      -0.00643418      -0.02881571
O       18.48537680       1.08077412      19.90252558      -0.01283309      -0.00309354      -0.00014552
H       17.41494166       1.36602078      14.29395949       0.00286976       0.00168670      -0.00371369
O       13.59218737       0.72482239      15.05200808       0.00315445       0.00021920       0.00650727
O       15.16230765       0.84944362      13.40058870       0.00227440      -0.00750228       0.00423263
N       16.39268207      -0.38099323      19.13401593       0.01251673       0.00219490       0.00482851
H       15.51880352      -0.85491740      19.32248294      -0.00149157      -0.00112243       0.00345119
H       17.03079276      -0.21822107      19.91264034       0.00606636       0.00388361      -0.00061199
C       17.76576865       1.35010864       5.26365021      -0.00011310       0.00217347      -0.00005017
C       16.44829675       1.83448231       4.95661515      -0.00007365       0.00152094       0.00141084
C       18.08043932       1.00747120       6.57464130       0.00061167      -0.00030393      -0.00078108
C       15.46930511       1.79627504       5.97581793      -0.00022011       0.00037663       0.00107920
C       18.79195369       1.20164759       4.19750097      -0.00285333      -0.00087251       0.00779497
C       17.10992499       1.01823143       7.57333275       0.00145612      -0.00142027      -0.00023366
C       15.78710798       1.36973070       7.26319297       0.00140623       0.00147499       0.00155138
C       14.71045034       1.24381921       8.29760340       0.00136060       0.00547986       0.00185990
H       19.10018753       0.70950161       6.81080090      -0.00083271      -0.00249753      -0.00135636
H       14.44571338       2.09724866       5.74940465      -0.00101797       0.00035524       0.00187308
O       19.99655571       1.02758890       4.58894346      -0.00545761      -0.00724676      -0.00243058
O       18.40965925       1.19863383       2.97347210      -0.00037990      -0.00268557       0.00169692
H       17.36058513       0.72749085       8.59102769       0.00128176      -0.00344186       0.00011860
O       13.49968254       1.25574967       7.89265877       0.00110952       0.00295905       0.00318055
O       15.10359666       1.08719906       9.50747947       0.00251001       0.01171821       0.00250437
N       16.16005475       2.33711097       3.73798382      -0.00019623       0.00029339       0.00059572
H       16.82091731       2.21419317       2.96976400      -0.00052288       0.00025304       0.00185683
H       15.24198657       2.71203372       3.53871132       0.00000541       0.00046018       0.00228556
C        7.39840705       1.43309929      15.89526738      -0.00116785      -0.00006984       0.00402326
C        6.10740222       1.99312489      15.60373783       0.00215680      -0.00008036       0.00137313
C        7.69680301       1.04169010      17.19605949       0.00217676      -0.00087064       0.00281529
C        5.12542135       1.96944868      16.61986237       0.00417335      -0.00031246      -0.00139070
C        8.40476448       1.24877507      14.81514284      -0.00108568       0.00090302       0.00183379
C        6.72569761       1.06983024      18.19516468       0.00239813      -0.00185295       0.00110803
C        5.41984017       1.48146896      17.89051674       0.00344326      -0.00577474      -0.00241754
C        4.32560673       1.33806359      18.90321789       0.01754116       0.01168073       0.00704909
H        8.69775296       0.67605714      17.41958688       0.00314204      -0.00038275      -0.00176101
H        4.11720293       2.32390531      16.40095431       0.00270095      -0.00181001       0.00524614
O        9.61656565       1.06377903      15.18100709      -0.00216464       0.00001146      -0.00110311
O        7.99360202       1.23093882      13.60268880       0.00053006       0.00114632       0.00027603
H        6.95783822       0.73379760      19.20371106       0.00519554      -0.00266037       0.00031107
O        3.12539940       1.32396242      18.46881553      -0.00115196       0.02050168      -0.00842491
O        4.69157490       1.19289946      20.12385604      -0.00477624      -0.00802039      -0.00321813
N        5.84425130       2.54300019      14.40000144       0.00301890       0.00085946       0.00325263
H        6.48818772       2.39497844      13.62216288      -0.00270133       0.00319795       0.00579851
H        4.95003451       2.97874051      14.21514447      -0.00043863       0.00356270       0.00185975
C        5.32240876       5.31073109       1.08124136      -0.00139112       0.00060433       0.00076558
C        6.68096498       4.97260306       0.75777158      -0.01082912      -0.00190769       0.00047190
C        4.99569170       6.62927093       1.38515644       0.00172278      -0.00390377       0.00382760
C        7.65970026       5.98632345       0.84869097      -0.00138202      -0.00634181      -0.00141952
C        4.26527496       4.26654757       1.10619412      -0.01115121       0.00407055      -0.00483850
C        5.97139515       7.62196845       1.42539793      -0.00173684      -0.00263500       0.00243884
C        7.31161779       7.29587936       1.16685577       0.00164519      -0.00411277      -0.00225922
C        8.37135563       8.34998934       1.18094165       0.00371144       0.00464642       0.00049589
H        3.95843890       6.87664945       1.60323839       0.00573938       0.00082025       0.00219001
H        8.70480777       5.74209563       0.65464015       0.00347161       0.00278296      -0.00180050
O        4.62423906       3.03630421       1.09141775      -0.00960597       0.00071147       0.00106451
O        3.05559272       4.67192539       1.19254535      -0.00049324      -0.01858874      -0.01490365
H        5.70845747       8.65164948       1.65720354       0.00366596       0.00149199      -0.00214028
O        7.96444957       9.56147135       1.11957964       0.00185431       0.00495934       0.00145984
O        9.58803733       7.95957253       1.20502331       0.00407565       0.00166487       0.00207230
N        7.01800231       3.73173272       0.34729479       0.00703378       0.00438044      -0.00093048
H        6.32661379       2.98140341       0.39823188       0.00317012       0.00188932      -0.00210534
H        7.97753780       3.50666757       0.12021053      -0.00587319       0.00391104      -0.00315999
C       15.73225769      15.87946343       1.00382085       0.00057920       0.00027793      -0.00091253
C       15.42397208      17.20403093       1.45739577      -0.00050410       0.00008398      -0.00111227
C       17.01263064      15.58089298       0.54986103       0.00085849       0.00091311      -0.00029301
C       16.42220999      18.19584197       1.33797902      -0.00035766       0.00046262      -0.00025084
C       14.69170791      14.81969605       1.02676704       0.00008941       0.00049702      -0.00056350
C       17.99045153      16.56746883       0.46636359       0.00074444       0.00188858       0.00092969
C       17.68895537      17.88250908       0.84788449       0.00120101       0.00173597       0.00219096
C       18.74110565      18.94075470       0.78129108       0.00331638       0.00360032      -0.00257362
H       17.24027959      14.55825025       0.25469287       0.00003039       0.00058808       0.00030559
H       16.20459222      19.21682232       1.65529211      -0.00123514       0.00066545      -0.00149311
O       13.46235296      15.18248935       1.00224154       0.00004902       0.00010388      -0.00072097
O       15.10255685      13.61039042       1.01160459       0.00017574       0.00046832      -0.00072488
H       18.99037798      16.33058899       0.10994550      -0.00017424       0.00155149      -0.00028334
O       19.95233865      18.54225971       0.72812134       0.00356534       0.00620466      -0.00950528
O       18.34722577      20.16418718       0.82686929       0.00074661       0.00402613      -0.00610142
N       14.22900643      17.48544790       2.01983254      -0.00035083       0.00037669      -0.00093328
H       13.46156546      16.81631747       1.94376401      -0.00050657       0.00080046      -0.00039479
H       14.03396343      18.41286336       2.37305609      -0.00156737       0.00019260      -0.00087472
C        7.18411140      15.76037631       0.74073222       0.00151779      -0.00000600      -0.00244549
C        5.82970906      15.43005724       0.39818617       0.00199776       0.00017350      -0.00335607
C        7.50885837      17.06622722       1.09574462      -0.00054968      -0.00009178      -0.00127933
C        4.85064233      16.44200445       0.50403249       0.00104649      -0.00019290      -0.00148109
C        8.24445640      14.72050966       0.73149723       0.00114872      -0.00039081      -0.00129465
C        6.52928749      18.05098781       1.18094921      -0.00113156       0.00019478       0.00055565
C        5.19263356      17.73413709       0.89747876      -0.00277148       0.00016615       0.00127840
C        4.13673074      18.78925469       0.97818624      -0.00343355       0.00727885      -0.00034004
H        8.54719630      17.30924969       1.31268575      -0.00052392      -0.00114261      -0.00117072
H        3.81112106      16.21047514       0.26814848       0.00109115      -0.00071353      -0.00394884
O        7.88746740      13.48756581       0.77049057       0.00123763      -0.00021585      -0.00038892
O        9.45191520      15.13082143       0.74871818       0.00123184      -0.00061921      -0.00053128
H        6.78746433      19.06810448       1.46673798       0.00088273      -0.00003769      -0.00003986
O        4.54690027      19.99608816       1.05375503      -0.00361338       0.00068314      -0.00509914
O        2.91606460      18.40394978       0.92220441      -0.00648227       0.00453841      -0.00494302
N        5.50363175      14.19493267      -0.04030421       0.00248763       0.00084568      -0.00460262
H        4.55005798      13.97252756      -0.29412349       0.00331536       0.00005119      -0.00572476
H        6.18570433      13.43997023       0.04858827       0.00142329       0.00023224      -0.00457722
C       15.85696205       7.40021999       1.03735787      -0.00088012       0.00217355       0.00085968
C       15.56172902       6.11539558       0.47170438       0.00034714       0.00167390       0.00033040
C       17.13195119       7.66744854       1.52365101       0.00161239      -0.00112718       0.00097541
C       16.55422858       5.11379185       0.55115013       0.00362130       0.00072170      -0.00103359
C       14.80208507       8.44519159       1.09951662      -0.00131112       0.00127445       0.00084125
C       18.10961388       6.67597510       1.55310107       0.00303727      -0.00304669      -0.00154456
C       17.81076628       5.38748710       1.08844448       0.00626109      -0.00506070      -0.00047152
C       18.84572992       4.30813791       1.13672304       0.01374000      -0.00074593       0.00207889
H       17.35296470       8.66590959       1.89725098      -0.00204054       0.00176736       0.00161632
H       16.33741270       4.11491402       0.16959283       0.00323617      -0.00000106      -0.00002379
O       13.58238578       8.05204117       1.12158298      -0.00089699      -0.00118917       0.00074573
O       15.18645626       9.66091875       1.17998678       0.00012672       0.00053620       0.00044340
H       19.10523423       6.88504922       1.93819784       0.00215476       0.00326095       0.00236117
O       20.06548058       4.67730164       1.22284424      -0.00010875      -0.00812408       0.00056994
O       18.42427208       3.09772171       1.04933234      -0.00456635      -0.00267437      -0.01120095
N       14.38903336       5.87919580      -0.15521525       0.00009281      -0.00080119      -0.00052022
H       14.21399327       4.98546289      -0.59566137       0.00192472      -0.00079921      -0.00107181
H       13.61046221       6.53148479      -0.05987633       0.00102539       0.00283229       0.00146952
C        0.96260767       5.19486670       5.43242519      -0.00052006       0.00037854       0.00112581
C        0.97477604       4.85523890       6.82849514      -0.00000804       0.00244372       0.00278692
C        0.99712201       6.53361779       5.05359042      -0.00123129       0.00059277       0.00328963
C        1.05522860       5.90443579       7.77169308       0.00114165       0.00568050       0.00328796
C        0.95041291       4.14451853       4.38199332       0.00018882      -0.00622103      -0.00474348
C        1.05904291       7.55125939       6.00097180      -0.00026176       0.00322838       0.00367617
C        1.09602646       7.23672454       7.36874976      -0.00009313       0.00509465       0.00518412
C        1.13552205       8.31584715       8.40539713       0.00127765       0.00339191      -0.00471374
H        0.97716199       6.77997107       3.99417969      -0.00102007       0.00183865       0.00086410
H        1.07989653       5.66800664       8.83600933       0.00143079       0.00014974       0.00224628
O        0.95175363       2.90653741       4.72035386       0.00101789      -0.00209659       0.01056275
O        0.98393038       4.56536781       3.17542755       0.00250168      -0.00880354       0.00082717
H        1.06884921       8.59321284       5.69101873      -0.00042349       0.00174180       0.00346460
O        1.06241969       9.52305490       7.97257228       0.00337533      -0.00244115       0.00173805
O        1.19243317       7.95148971       9.62584534       0.00104170       0.00156310       0.00657557
N        0.91040979       3.57278554       7.23596492       0.00138271       0.00224448       0.00396703
H        0.87926903       2.82849318       6.53606600       0.00017629      -0.00011143      -0.00146971
H        0.91334897       3.34238345       8.22039302       0.00175881       0.00042869       0.00165945
C        0.94271450      17.98316771      17.58445542       0.00074128      -0.00179070      -0.00385962
C        0.41061638      18.27686638      16.28623215      -0.00135305       0.00260597       0.00087421
C        1.43245872      16.71297137      17.86918856      -0.00036092       0.00162036       0.00220969
C        0.48240194      17.26897309      15.29917230       0.00007694       0.00375790       0.00276767
C        0.93582285      19.01741091      18.64826467      -0.00312789      -0.00949097      -0.00599378
C        1.46836464      15.72655956      16.88938536       0.00102022       0.00278774       0.00472490
C        0.99954866      16.00991766      15.59960753      -0.00007286       0.00585714       0.00538486
C        1.02053413      14.93714928      14.55771561       0.00209157      -0.00357084       0.00406780
H        1.78950134      16.49768827      18.87453303       0.00156288      -0.00063064       0.00017059
H        0.11225728      17.47168509      14.29298653       0.00059283       0.00190681       0.00396776
O        0.96183211      20.25252372      18.30660226      -0.00509122       0.00027612      -0.00430875
O        0.95862325      18.58355248      19.84902901       0.00101777       0.01569918       0.00041318
H        1.85220175      14.73362255      17.11328056       0.00022279       0.00267305      -0.00045084
O        1.06919666      13.73754985      14.98989389       0.00157831       0.00550978      -0.00115732
O        0.95213524      15.30693450      13.33378402      -0.00051143       0.00207179      -0.00145342
N       -0.18009562      19.46762986      16.04014964      -0.00079487      -0.00027163      -0.00463017
H       -0.05436747      20.23693670      16.69914368       0.00181994      -0.00136403       0.00138277
H       -0.58775287      19.66690154      15.13568397       0.00216677      -0.00019386       0.00464058
C        1.20364636       5.50509778      17.90089417      -0.03354821      -0.00434015      -0.02199892
C        1.42045994       6.88253127      18.23534035       0.00965724      -0.01065190      -0.00904833
C        0.95898218       5.15365337      16.57459464       0.00247455       0.01084257      -0.03243737
C        1.34022041       7.84479984      17.20459762      -0.02719475       0.01471522       0.01658109
C        1.22996377       4.45210086      18.94899136       0.05859608      -0.03521420      -0.04260334
C        0.90627039       6.11691680      15.57003567      -0.03639738       0.02127060       0.00931918
C        1.07992991       7.47380363      15.89057674       0.07143726      -0.00707654      -0.00743467
C        1.06117342       8.52617333      14.82591305      -0.07760400      -0.03864002      -0.01399434
H        0.80423295       4.10547744      16.32485113       0.01949123       0.01460047       0.01967213
H        1.48586736       8.89853131      17.44240045      -0.00114442       0.02585261       0.00448993
O        1.22499457       4.78278281      20.18831091      -0.02873600       0.02128453      -0.02747939
O        1.21856349       3.24895281      18.51650399      -0.08094405      -0.03800937       0.03006301
H        0.72459945       5.83592611      14.53456481       0.00317226      -0.00343784       0.02978347
O        1.05956547       8.09959293      13.62154827       0.07761245      -0.01165887      -0.02050408
O        1.07667228       9.74564707      15.20474415       0.04943673      -0.02904718      -0.02677103
N        1.71861886       7.25744325      19.49379613       0.00557741       0.01377586       0.02231364
H        1.87469670       8.23336369      19.70306869       0.01397055       0.02783102       0.07458299
H        1.67422542       6.57043635      20.24820667       0.00331015      -0.01261404      -0.00019834
C        0.95255160      17.64796747       5.11287345      -0.00199471      -0.00116357      -0.00074972
C        1.30760564      16.29592093       4.79290970      -0.00072820      -0.00028411       0.00161852
C        0.57843704      17.97516053       6.41271416      -0.00173246       0.00053091       0.00012038
C        1.21025964      15.32145337       5.81089454      -0.00064009       0.00024567       0.00163069
C        0.99362001      18.70995352       4.07578585      -0.00160305       0.00159019       0.00025543
C        0.50659004      17.00347577       7.40533627      -0.00180124       0.00044866       0.00069369
C        0.81994577      15.67102620       7.10311490      -0.00114238       0.00040937       0.00161656
C        0.78940654      14.63631637       8.18003736      -0.00059401      -0.00014615      -0.00138746
H        0.34076115      19.01069728       6.64722400      -0.00157156       0.00102184       0.00017241
H        1.47136814      14.28556580       5.58868975      -0.00088996       0.00073186       0.00163099
O        1.00823343      18.37368009       2.83856508       0.00297196       0.00110240      -0.00385693
O        0.95692373      19.91352224       4.50384100      -0.00431658      -0.00443699       0.00101991
H        0.21662647      17.26632834       8.41993699      -0.00262611       0.00165944       0.00057746
O        0.76984143      15.06375328       9.38137426      -0.00100922       0.00322394       0.00062162
O        0.82986257      13.40525176       7.81029267      -0.00115253       0.00183792       0.00212099
N        1.75708013      15.96851120       3.56325673      -0.00001141       0.00088795       0.00016517
H        2.02161010      15.01657253       3.34802423       0.00077189       0.00186910       0.00038614
H        1.70538330      16.65692658       2.81010787      -0.00046011       0.00262048       0.00165975
C        7.31251397      11.84149521      17.71183204      -0.00065392      -0.00179117       0.00227295
C        7.66327357      12.22743901      16.37257767       0.00189110       0.00134065       0.00351828
C        5.97070463      11.67076296      18.03811404      -0.00074819      -0.00209519       0.00114865
C        6.64139148      12.26780489      15.39518028       0.00477063       0.00185425       0.00195741
C        8.35959530      11.62050744      18.74924819      -0.00105115      -0.00059622      -0.00002246
C        4.97321577      11.77161826      17.07036360      -0.00180250      -0.00209825       0.00268147
C        5.31294567      12.01754687      15.73076093       0.00543864      -0.00288830       0.00378796
C        4.26253710      11.94496168      14.66180891      -0.01134375       0.00509489       0.00290153
H        5.70648257      11.42735627      19.06519567      -0.00049212      -0.00384497       0.00000521
H        6.89835930      12.49250761      14.35935216      -0.00313467       0.00235789      -0.00210763
O        7.94731914      11.51198360      19.95448284      -0.00249058      -0.00011695      -0.00054685
O        9.58205205      11.50865103      18.38138560      -0.00130385      -0.00018304      -0.00151892
H        3.92828477      11.63014119      17.33686356      -0.00421818      -0.00417128       0.00212370
O        4.65614512      11.90411009      13.44574866       0.00102968      -0.00212876       0.00212952
O        3.05250021      11.87287134      15.07007979       0.00132522       0.00237212       0.00221574
N        8.93074109      12.56605135      16.05974409      -0.00132200       0.00365703       0.00079242
H        9.67953570      12.40025975      16.73359761      -0.00482230       0.00319977       0.00214003
H        9.17022481      12.86497619      15.12358479      -0.00284214       0.00567441       0.00133366
C       17.61725963      11.85114867       7.41032164       0.00069286       0.00054659      -0.00298527
C       17.93773078      12.42301209       6.13192002      -0.00084951       0.00179800      -0.00353558
C       16.29753158      11.52291163       7.70227716       0.00070710      -0.00008577      -0.00281614
C       16.93012158      12.44165866       5.14105438      -0.00222917       0.00142895      -0.00331529
C       18.68636685      11.60426325       8.41441137       0.00281794       0.00332649      -0.00386192
C       15.30411226      11.61558542       6.72929886      -0.00032104       0.00009600      -0.00228495
C       15.63613791      12.01295079       5.42465277      -0.00169908       0.00068119      -0.00255930
C       14.62230970      11.91748327       4.32458947      -0.00136830       0.00066117      -0.00115365
H       16.05394021      11.15687472       8.69848943       0.00142193      -0.00120379      -0.00209678
H       17.17170017      12.78997864       4.13608187      -0.00215187       0.00227852      -0.00309356
O       18.31264508      11.44247618       9.62611996      -0.00218182       0.00969390      -0.00318473
O       19.89498489      11.52321988       8.00034503       0.00168285       0.00252762      -0.00661762
H       14.27552636      11.34699765       6.96100686       0.00008640      -0.00029196      -0.00165954
O       15.05715702      11.88171542       3.12461322      -0.00098401       0.00081470      -0.00089710
O       13.39705441      11.82364965       4.68959750      -0.00088402       0.00065375      -0.00028956
N       19.15553797      12.95213341       5.89322938      -0.00120237       0.00346339      -0.00379702
H       19.92722974      12.78108656       6.53869297       0.00015311       0.00172488      -0.00245976
H       19.35859888      13.40340339       5.01064687      -0.00177697       0.00491832      -0.00232264
C       15.85358322      11.17446199      17.83370413       0.00005839      -0.00098429      -0.00152429
C       17.23875167      11.00385512      18.17749541      -0.00080877      -0.00101104       0.00001901
C       15.48758441      11.26333857      16.49375145      -0.00192279      -0.00040231      -0.00164147
C       18.19684566      11.06468331      17.14045935      -0.00190981      -0.00122229       0.00000147
C       14.80986430      11.30246515      18.88469559      -0.00011620      -0.00104833      -0.00005152
C       16.44707961      11.29860123      15.48581389      -0.00064238      -0.00182723       0.00088905
C       17.81021867      11.24975035      15.81557134      -0.00083154       0.00065181       0.00044921
C       18.85168563      11.44871068      14.76023003       0.00616357      -0.00884832       0.00407189
H       14.43170422      11.32669581      16.23977352      -0.00341011       0.00048151       0.00149326
H       19.25743203      10.98443044      17.38169343      -0.00438718       0.00117663      -0.00001500
O       13.60187210      11.35793653      18.47460933      -0.00051314      -0.00085746       0.00139786
O       15.17084846      11.40760721      20.11152929      -0.00196107      -0.00021187       0.00088905
H       16.15411526      11.38971068      14.44261949      -0.00276306      -0.00212561       0.00133394
O       20.06009766      11.58223598      15.14830936       0.00786182      -0.00913101      -0.00851643
O       18.43001358      11.51244881      13.55319907       0.00567569      -0.00777520       0.00206636
N       17.61952797      10.78570791      19.45192670       0.00067578      -0.00298054       0.00057366
H       18.59443708      10.64654016      19.68153054      -0.00133197      -0.00329595       0.00014446
H       16.92966782      10.86673241      20.20099943      -0.00197650      -0.00262165       0.00032810
C        5.25054948      11.38358768       7.22973142      -0.00124721      -0.00239649       0.00283886
C        4.92354299      11.07139189       5.86543820      -0.00071147      -0.00351241       0.00271131
C        6.57237040      11.65751676       7.56895691      -0.00070717      -0.00378143       0.00091135
C        5.95438021      11.11984037       4.90021407      -0.00133531      -0.00342219       0.00121536
C        4.19512395      11.44793654       8.27790669       0.00012716      -0.00010527      -0.00033439
C        7.57527069      11.68603691       6.60305098      -0.00035484      -0.00390779       0.00134137
C        7.26136124      11.43700913       5.25750091      -0.00074275      -0.00279026       0.00097846
C        8.30837265      11.54415008       4.19405192      -0.00039998      -0.00022107       0.00017975
H        6.81490797      11.86332944       8.60964118      -0.00058084      -0.00401464      -0.00010748
H        5.72092099      10.91842872       3.85420566      -0.00006077      -0.00347853      -0.00002193
O        4.59151212      11.57155186       9.48535681      -0.00213441      -0.00318414       0.00167710
O        2.96515540      11.43173507       7.91007577       0.00180647       0.00148676       0.00206819