504
Lattice="20.98358774454355 0.0 0.0 0.0 20.98358774454355 0.0 0.0 0.0 20.98358774454355" Properties=species:S:1:pos:R:3:forces:R:3 energy=-3715.1975748755863 stress="0.0003292974896742036 1.738594616683433e-05 0.00019218484933406727 1.738594616683433e-05 -0.00044695529931413616 1.2737646911044464e-05 0.00019218484933406727 1.2737646911044464e-05 0.0001567869316240417" pbc="T T T"
C        7.28255513       0.85355597       7.24035228      -0.00076817      -0.00047921       0.00147474
C        6.00905378       0.27062993       7.55987426      -0.00012621      -0.00101759       0.00185016
C        7.55912095       1.21571198       5.92639001      -0.00055023      -0.00123766       0.00150197
C        5.01468733       0.24837907       6.55472173      -0.00067778      -0.00105340       0.00218511
C        8.30800063       1.06347777       8.29866302      -0.00060668      -0.00179182       0.00025033
C        6.58243232       1.12785797       4.93701217      -0.00045062      -0.00104652       0.00120349
C        5.28853924       0.69337130       5.26370253      -0.00061156      -0.00190498       0.00140407
C        4.20010736       0.75495322       4.23494550      -0.00104590      -0.00390448      -0.00057290
H        8.54816036       1.59990778       5.68187775      -0.00109669      -0.00041982       0.00122498
H        4.01618995      -0.11994069       6.79339545      -0.00128396      -0.00113810       0.00143748
O        9.51222786       1.22336085       7.90012123      -0.00094226      -0.00234644       0.00030417
O        7.92261787       1.11733448       9.51851868      -0.00130002      -0.00087462      -0.00033894
H        6.80558933       1.42195227       3.91372721      -0.00071364      -0.00133649       0.00057230
O        2.98773324       0.74118093       4.63887978      -0.00049176      -0.00531408       0.00169303
O        4.59142481       0.87268062       3.02001293       0.00076242      -0.00406518       0.00008285
N        5.78275626      -0.26960179       8.77575403      -0.00085809      -0.00056641       0.00140805
H        4.90324022      -0.72483002       8.98319193      -0.00059502      -0.00067430       0.00128579
H        6.43245693      -0.09437933       9.54318810      -0.00119237      -0.00080884       0.00105227
C       17.87927843       0.78676685      17.62981834       0.00035928       0.00058744       0.00048382
C       16.61269422       0.18285713      17.94161583       0.00181414       0.00038007       0.00085128
C       18.15450910       1.15386367      16.31677517       0.00083556      -0.00000994       0.00073655
C       15.61757336       0.16409629      16.93702989       0.00131224       0.00023533       0.00110801
C       18.88862893       1.02640127      18.69814626      -0.00174547      -0.00031747      -0.00263216
C       17.17828692       1.06376682      15.32549767       0.00109432       0.00022600       0.00077729
C       15.88479879       0.62681989      15.65093303       0.00029353      -0.00011169       0.00047455
C       14.78287470       0.71219334      14.63595660      -0.00056182      -0.00007207      -0.00052353
H       19.14100801       1.54755222      16.07613587       0.00010485       0.00023185      -0.00064753
H       14.62149529      -0.21256006      17.17397787       0.00026101       0.00089795       0.00032999
O       20.09845318       1.20292709      18.32459718      -0.00105150      -0.00045474       0.00274580
O       18.47678508       1.08922660      19.90999522       0.00354008      -0.00058176      -0.00174123
H       17.39898948       1.36295801      14.30290688      -0.00016650       0.00030953      -0.00017329
O       13.57956529       0.71982429      15.06562670      -0.00005139      -0.00032705       0.00097523
O       15.15069702       0.82699186      13.41392036       0.00112285      -0.00088714      -0.00010269
N       16.38836314      -0.37824291      19.14832550       0.00079084       0.00057147      -0.00007007
H       15.51599862      -0.85331639      19.34139578       0.00092500       0.00049836       0.00035431
H       17.02814525      -0.21028633      19.92470843       0.00041955       0.00008027      -0.00083649
C       17.76656910       1.35023401       5.27272660       0.00164509      -0.00045381      -0.00035598
C       16.45165391       1.84398193       4.97031085       0.00129786       0.00031387       0.00019007
C       18.08073421       0.99611363       6.58076718      -0.00012120      -0.00078274      -0.00024922
C       15.47499304       1.80944518       5.99172574       0.00058138       0.00112039       0.00041009
C       18.79106458       1.20331805       4.20471652       0.00055493      -0.00145990      -0.00031965
C       17.11257651       1.00937199       7.58180050       0.00028444      -0.00009998      -0.00004406
C       15.79277542       1.37648081       7.27673226       0.00012980      -0.00045328       0.00034265
C       14.71638984       1.25865416       8.31223968      -0.00056668       0.00047190       0.00036416
H       19.09830332       0.68727968       6.81247947      -0.00078904      -0.00076462      -0.00040934
H       14.45292409       2.11823766       5.76889768       0.00004914       0.00167719       0.00049965
O       19.99582740       1.02629458       4.59316203       0.00047942      -0.00326011       0.00035652
O       18.40733506       1.20486721       2.98068602       0.00026343      -0.00112208      -0.00001464
H       17.36238411       0.70883175       8.59694926       0.00013539      -0.00079389      -0.00031355
O       13.50612841       1.27087802       7.90574027       0.00045026      -0.00045108      -0.00020935
O       15.10819462       1.10790690       9.52308051       0.00038130      -0.00047496      -0.00028848
N       16.16299280       2.35122536       3.75374163       0.00060707       0.00100010       0.00001544
H       16.82096870       2.22688238       2.98341643       0.00146317       0.00008901       0.00016371
H       15.24596640       2.73053990       3.55807796       0.00055322       0.00145114       0.00004020
C        7.39752274       1.43387528      15.89881812       0.00126200      -0.00080964      -0.00018885
C        6.11236393       2.00769208      15.60983950       0.00075803       0.00030985       0.00120136
C        7.69267232       1.03262625      17.19737887       0.00029280      -0.00072813       0.00021686
C        5.12858060       1.98210942      16.62388478       0.00086648       0.00054614       0.00148140
C        8.40185583       1.24753920      14.81744533       0.00104478       0.00006400      -0.00041698
C        6.72039793       1.06016830      18.19527517       0.00011102      -0.00063239       0.00034019
C        5.41775180       1.48344254      17.89147642       0.00062817      -0.00002379       0.00115371
C        4.32130033       1.34565624      18.90267236       0.00211524      -0.00098246      -0.00047014
H        8.69159641       0.66031015      17.41926109       0.00047448      -0.00141372      -0.00024709
H        4.12281161       2.34402469      16.40657456       0.00139550       0.00168727       0.00118649
O        9.61331795       1.05897459      15.18282590       0.00114532      -0.00071642      -0.00062442
O        7.98980102       1.23143223      13.60552688      -0.00051966       0.00117425       0.00001832
H        6.94952623       0.71560715      19.20165948       0.00080059      -0.00148486      -0.00024415
O        3.12001050       1.35133247      18.47000658       0.00162453      -0.00117237       0.00228079
O        4.68769277       1.18362288      20.12091198      -0.00040672      -0.00225277      -0.00041022
N        5.85750477       2.57313245      14.41155887       0.00084026       0.00105969       0.00076167
H        6.49940134       2.42472257      13.63233281       0.00145845       0.00085624       0.00026720
H        4.96894479       3.02179197      14.22992274       0.00093974       0.00174997       0.00157228
C        5.33433784       5.28965342       1.11222165       0.01217301       0.00860364      -0.00490412
C        6.69286422       4.94445712       0.79722412       0.01629627       0.02141464      -0.01523155
C        5.01644885       6.60780230       1.42627141       0.00721287       0.01509635      -0.00985054
C        7.67594046       5.95556497       0.88018181       0.00820657       0.02090311       0.00466955
C        4.26905911       4.25430854       1.10949520      -0.00269254      -0.00672390       0.00579124
C        5.99565922       7.59763906       1.45717806       0.01226679       0.00734679       0.00771257
C        7.33160589       7.27168342       1.17770197      -0.00050773      -0.00282533      -0.00443530
C        8.38706533       8.33318490       1.15425646      -0.01188855      -0.07776385       0.04453197
H        3.98225487       6.86046372       1.65128177      -0.00675256      -0.00480869       0.00523227
H        8.72036237       5.70220494       0.69138356      -0.00780717       0.02380717      -0.00490275
O        4.62109086       3.02232682       1.09202464       0.01613339      -0.00382507      -0.00004299
O        3.06031509       4.66489496       1.17654376      -0.00413037       0.00265297       0.00250108
H        5.74096405       8.62767448       1.69705775      -0.01249564      -0.00047977      -0.01234720
O        7.97561381       9.54057497       1.05710677      -0.01482948      -0.02361761       0.04689884
O        9.60470676       7.94654398       1.19185649      -0.00250721       0.02037566      -0.02555391
N        7.03024569       3.70213789       0.39169620       0.00919542      -0.00102469       0.00060970
H        6.33846624       2.95273266       0.43525482      -0.02353748      -0.00285072       0.00241755
H        7.99098903       3.47499847       0.17358321       0.01111369       0.00261458      -0.00708965
C       15.71826558      15.89005619       0.99722805      -0.00412615      -0.00427997      -0.00064126
C       15.41073825      17.21551987       1.44801478      -0.00217270      -0.00263220      -0.00110744
C       16.99992397      15.58913982       0.54796704      -0.00245849       0.00331800      -0.00037184
C       16.41055291      18.20603619       1.33065732      -0.00336990       0.00156179      -0.00032777
C       14.67719949      14.83057111       1.02314709       0.00147233      -0.00505449       0.00051554
C       17.97884145      16.57475332       0.46636854       0.00261460       0.00014476      -0.00137389
C       17.67886112      17.89058153       0.84587223      -0.00142671       0.00023049      -0.00034767
C       18.73351172      18.94664849       0.78138173      -0.00141544      -0.00219430       0.00004746
H       17.22800740      14.56592334       0.25493732      -0.00302368       0.00391966       0.00126422
H       16.19268554      19.22756977       1.64542104      -0.00106323       0.00503080       0.00154508
O       13.44614184      15.18972786       1.00516606       0.00409987      -0.00569779      -0.00045054
O       15.09005386      13.62224573       1.00454829       0.00644983      -0.00438785       0.00709445
H       18.97922886      16.33671119       0.11264983       0.00540161      -0.00306659      -0.00185801
O       19.94390478      18.54564395       0.72674247      -0.00156740      -0.00069405      -0.00032640
O       18.34176112      20.17060361       0.83047182       0.00024512      -0.00272750       0.00027660
N       14.21419267      17.49750896       2.00672189      -0.00110602       0.00320301      -0.00136947
H       13.44791110      16.82703362       1.92822326      -0.00154070       0.00460319       0.00128033
H       14.01710353      18.42536204       2.35742194      -0.00111667       0.00394671      -0.00057962
C        7.17156616      15.73603389       0.74068888      -0.00584358       0.00769152       0.00370344
C        5.82446060      15.41693478       0.36503133      -0.00011030       0.00417726      -0.00955869
C        7.50104368      17.03993432       1.09850264      -0.01103520       0.01247282      -0.00426047
C        4.84729533      16.43122456       0.46828987       0.00088456      -0.00136607      -0.00493075
C        8.22302513      14.68836609       0.74666693       0.02085396      -0.00963890      -0.01437577
C        6.52535202      18.02967720       1.17527108      -0.02013095       0.00011859      -0.00404811
C        5.18937121      17.71902758       0.87833749      -0.01163593      -0.00706738       0.00168998
C        4.13409342      18.77598744       0.96671574      -0.00087007       0.00151907       0.00101522
H        8.53932867      17.27668048       1.32313706      -0.00699525       0.00148575       0.00749941
H        3.81070183      16.20379923       0.21458532       0.00765102       0.01207205       0.00360656
O        7.86153240      13.45734598       0.80531220       0.00391097       0.02373099      -0.01706502
O        9.43141127      15.09521457       0.75346231       0.02268469       0.02669656      -0.00273260
H        6.78534183      19.04548012       1.46573543      -0.00359161      -0.01375670      -0.00104592
O        4.54575890      19.98190316       1.04534627      -0.00420051       0.00270941      -0.00079660
O        2.91203003      18.39267312       0.91570256       0.00079877       0.00116268      -0.00122542
N        5.51101337      14.19166760      -0.10958993      -0.00757738      -0.00462984      -0.00000046
H        4.56610520      13.97404244      -0.39735837      -0.00472162       0.00634499      -0.00351360
H        6.18421352      13.43096539      -0.00789902       0.00891032      -0.00645704       0.00020603
C       15.88025855       7.41714704       1.03011419      -0.00166396       0.00353475       0.00534022
C       15.58579600       6.13323342       0.46244686      -0.00011552      -0.00083258       0.00270295
C       17.15378495       7.68228828       1.52180388       0.00161707       0.00070773       0.00246935
C       16.57642674       5.13048695       0.54557296       0.00208895      -0.00020503      -0.00244659
C       14.82323272       8.45959647       1.09547117      -0.01097803       0.00827671       0.00366357
C       18.13046329       6.68973663       1.55467548       0.00017661      -0.00485862      -0.00271288
C       17.83004656       5.40143081       1.08991039       0.00182357      -0.00332257      -0.00101884
C       18.85835806       4.31675648       1.14370343      -0.00075216       0.00006109       0.00128702
H       17.37373356       8.67975811       1.89856139      -0.00162094       0.00568025       0.00015777
H       16.36017727       4.13186745       0.16292846      -0.00052218       0.00159132      -0.00018318
O       13.60465842       8.06421463       1.11764911      -0.00057439      -0.03355296      -0.00012954
O       15.20246528       9.67699464       1.17957628       0.01456918       0.00193734       0.00149440
H       19.12525757       6.89689213       1.94353673      -0.00427457       0.00178989      -0.00036238
O       20.07968537       4.67998713       1.22952615      -0.00088117       0.00023861       0.00172475
O       18.42968239       3.10866518       1.05941943      -0.00149705       0.00114425       0.00052186
N       14.41499613       5.89614963      -0.16714244      -0.00250261       0.00056208      -0.00315184
H       14.24245014       5.00200559      -0.60776353      -0.00115211       0.00085200      -0.00276305
H       13.63537890       6.54707313      -0.07351118      -0.00444814       0.00523506      -0.00060233
C        0.98040786       5.18151270       5.43651208      -0.00571782      -0.00728123       0.00740064
C        0.99240700       4.83736912       6.83167063      -0.01164931       0.00295285       0.00784912
C        1.01198255       6.52160914       5.06317142      -0.00503484      -0.00250036      -0.00454209
C        1.06165031       5.88425014       7.77858836       0.00591083       0.00761316       0.00603655
C        0.96534831       4.13461163       4.38195972       0.00373705       0.00540122       0.00539103
C        1.06113667       7.53690469       6.01368575       0.01011475      -0.00247923      -0.00168250
C        1.08395162       7.21901825       7.38033770       0.00402841      -0.00016936       0.00729164
C        1.09838787       8.29959635       8.41613457       0.03522500      -0.00736428      -0.00192124
H        0.99716345       6.77085383       4.00477181       0.00030143       0.00675105      -0.01153725
H        1.09156979       5.64215839       8.84155559      -0.00806539       0.01341445       0.00479330
O        0.96114791       2.89552436       4.71776369       0.00327165       0.00766837       0.01120895
O        1.00087242       4.55821283       3.17702810       0.00195850      -0.00036632       0.00211671
H        1.07512918       8.57978408       5.70741863      -0.01604942       0.00214064      -0.00433503
O        1.00853403       9.50488104       7.98147208       0.03971635      -0.00409793      -0.01180875
O        1.15931382       7.93827897       9.63776576      -0.01558007       0.00226513       0.00315311
N        0.93240752       3.55307072       7.23480979       0.00479441       0.00023111       0.00041688
H        0.89785600       2.81091112       6.53285884       0.00347599       0.00428077      -0.00483565
H        0.93731155       3.31716403       8.21782008       0.00111083       0.01113141       0.00904556
C        0.94271585      17.98125273      17.57954281       0.00023970      -0.00220864      -0.00151777
C        0.40972336      18.27591484      16.28190956       0.00153433      -0.00276475      -0.00144170
C        1.43596931      16.71192924      17.86242149       0.00054749      -0.00060111      -0.00181887
C        0.48243716      17.26932656      15.29345175       0.00155756       0.00015592       0.00130767
C        0.93266138      19.01420866      18.64428311      -0.00091609      -0.00082650      -0.00164723
C        1.47270574      15.72692022      16.88103873       0.00138461       0.00231311      -0.00007420
C        1.00170295      16.01071141      15.59189010      -0.00246719       0.00429457       0.00748609
C        1.01935063      14.93734166      14.54983057       0.00221311       0.00518070       0.01298939
H        1.79516914      16.49609929      18.86702988      -0.00112816       0.00191334      -0.00244281
H        0.11082023      17.47261433      14.28786211       0.00132422       0.00159743       0.00431379
O        0.95982041      20.24987501      18.30253427       0.00063418      -0.00023150       0.00384314
O        0.95219059      18.58139531      19.84514196      -0.00057487       0.00264395      -0.00118352
H        1.85879195      14.73430152      17.10294736      -0.00067055       0.00481391       0.00009277
O        1.06316275      13.73846284      14.98369097      -0.00329105       0.00244040      -0.01403580
O        0.95261148      15.30747492      13.32526995       0.00410179      -0.02066862       0.01131248
N       -0.18225589      19.46617014      16.03687714       0.00110028      -0.00241956       0.00106228
H       -0.05730413      20.23466772      16.69698878      -0.00180054       0.00140517      -0.00329881
H       -0.58969063      19.66542193      15.13241246       0.00010337       0.00347539       0.00260823
C        1.20935231       5.50212789      17.90225800       0.00017030       0.00224415      -0.00091274
C        1.41155529       6.88200910      18.24878785      -0.00111840       0.00117835      -0.00046921
C        0.98889045       5.15301141      16.57277298       0.00063840       0.00309160      -0.00076211
C        1.33557725       7.84726040      17.21956025      -0.00090841       0.00118103       0.00088399
C        1.21405411       4.44109571      18.94114837       0.00098916       0.00195591      -0.00103770
C        0.93219105       6.12016015      15.57411160       0.00060089      -0.00302642      -0.00485776
C        1.10642238       7.47402001      15.89776730       0.00313100      -0.00387291       0.00235357
C        1.09290214       8.51655123      14.82427571       0.00411821       0.00131414       0.00135234
H        0.85546486       4.10351680      16.31885543       0.00256552       0.00528745       0.00171234
H        1.46703879       8.90249627      17.46147362      -0.00246174       0.00302587      -0.00164520
O        1.21511321       4.77068303      20.18100398      -0.00029333      -0.00176280       0.00075911
O        1.16239059       3.23856630      18.50981647       0.00175019       0.00156412       0.00180202
H        0.75784560       5.83930650      14.53848963       0.00005036      -0.00383849      -0.00694575
O        1.10922693       8.08709863      13.62015982      -0.00177859      -0.02573830       0.01376358
O        1.11205625       9.73788586      15.19594526      -0.00085322      -0.00243793       0.00937981
N        1.68396655       7.24998261      19.51650127       0.00072007       0.00166257      -0.00220879
H        1.83017784       8.22268725      19.75098186       0.00177070       0.00054393      -0.00197813
H        1.64881654       6.54832140      20.25864707       0.00038546      -0.00236781      -0.00637903
C        0.93987885      17.64033600       5.11385634       0.00377521      -0.00113620      -0.01103363
C        1.30534815      16.29225185       4.78756201       0.00483169       0.00535499      -0.01050333
C        0.55792004      17.95786962       6.41436223       0.00265616       0.00121712      -0.01679289
C        1.21103307      15.31117208       5.79913553      -0.00090594       0.00295228      -0.01053753
C        0.98602647      18.70715114       4.08103888      -0.00309600      -0.00292396       0.00171674
C        0.49095969      16.97909996       7.40069490      -0.00971266       0.01335326      -0.00643372
C        0.81885564      15.65154499       7.09234676       0.00835613       0.00646057      -0.00360084
C        0.80974061      14.61386963       8.16504304      -0.01434787      -0.03831027       0.01787928
H        0.31181806      18.99068980       6.65407016       0.00063873      -0.01091357      -0.00530602
H        1.47793976      14.27823927       5.57153340       0.00479581      -0.00705619       0.00007748
O        1.00480584      18.37476819       2.84204035      -0.00026169      -0.00162919       0.00452931
O        0.95059557      19.90923111       4.51219909      -0.00032611      -0.00087751      -0.00679134
H        0.19350452      17.23115031       8.41571752      -0.00157354       0.01111194       0.00467411
O        0.77674530      15.03823433       9.36707589       0.00154225       0.02190015       0.01090727
O        0.87833703      13.38384763       7.79348484      -0.01801737       0.02408555       0.01760807
N        1.76535344      15.97413106       3.55918070      -0.00197681       0.00231291       0.00044814
H        2.03720942      15.02467204       3.34118173      -0.00077830       0.00974611       0.00064283
H        1.71410684      16.66638193       2.80913900       0.00145899      -0.00824233       0.00613674
C        7.30925440      11.83523834      17.71318950      -0.00070610      -0.00181734       0.00065185
C        7.65640922      12.25213378      16.38294502      -0.00406457       0.00447113      -0.00448178
C        5.97063877      11.63541655      18.03598782      -0.00413008       0.00229107      -0.00042361
C        6.63622150      12.28859838      15.40397275      -0.00617895       0.00129175       0.00105839
C        8.35938020      11.62047171      18.74749294       0.01892289      -0.00147601       0.02507090
C        4.97234228      11.73858131      17.06967991      -0.00018874       0.00140346      -0.01069879
C        5.31156055      12.01336492      15.73547454      -0.00423133       0.00221595      -0.00505039
C        4.26259692      11.94669447      14.66474865      -0.00432868      -0.00645820      -0.00669768
H        5.70943111      11.36854382      19.05796565       0.00355728      -0.00540639       0.00562146
H        6.89054623      12.53192612      14.37130305      -0.00505745       0.00183278       0.01104945
O        7.95094651      11.51986880      19.95409467      -0.01753442      -0.01672808       0.01060326
O        9.58058884      11.50742658      18.37720988       0.01294660      -0.00306545      -0.01841796
H        3.92871753      11.57700019      17.33163956       0.00974339      -0.00215298      -0.00023364
O        4.65995553      11.90066980      13.44989552      -0.01016783       0.00081465      -0.00211046
O        3.05131446      11.88237205      15.06959274       0.00012156      -0.01148477      -0.00218433
N        8.91696490      12.62569123      16.08246319       0.00003362       0.00495310      -0.00460727
H        9.66826924      12.45878594      16.75298878       0.00316895       0.00196273       0.00421759
H        9.15286791      12.95139098      15.15421094      -0.00334272       0.00286249       0.00488479
C       17.61827816      11.87064374       7.39633797       0.00119752       0.00233792       0.00254168
C       17.93236826      12.44886082       6.11902034       0.00138312       0.00132180       0.01115885
C       16.30232490      11.52954563       7.69003380       0.00734234       0.00445424       0.00330214
C       16.92036690      12.47017939       5.13296972       0.01081011       0.00275184       0.00146012
C       18.68835669      11.63108826       8.40203252       0.01655944      -0.00227288       0.00097825
C       15.30489466      11.62195875       6.72176856       0.00147513      -0.00019959       0.00107030
C       15.63059787      12.03091560       5.41963140       0.00506904       0.00291201      -0.00049560
C       14.61564628      11.93132288       4.32335103      -0.01633614      -0.00382802      -0.01804480
H       16.06568947      11.15425421       8.68447070      -0.00407461      -0.00078660      -0.00207590
H       17.15555133      12.82616338       4.12901147      -0.00184761       0.00127180       0.00337346
O       18.31309234      11.47071714       9.61327786       0.00925477      -0.00356991       0.00010708
O       19.89774651      11.55435266       7.98895454      -0.00512553      -0.01035350       0.00859615
H       14.27935855      11.34386420       6.95498994      -0.00451292      -0.00044191      -0.00096658
O       15.04793233      11.90255498       3.12234732       0.01531751      -0.00634311      -0.00734962
O       13.39195753      11.82496466       4.68952036      -0.01539476      -0.00145743       0.00625320
N       19.14897678      12.98168673       5.87962907      -0.00273572       0.00416615      -0.01734744
H       19.92502385      12.79496503       6.51548811       0.00244775      -0.00125401       0.00666459
H       19.34819015      13.43909831       4.99867316      -0.00323408      -0.00927276       0.01710987
C       15.85608150      11.16735707      17.83023639      -0.00891651       0.00118057       0.00835195
C       17.23884227      10.98177780      18.17676216      -0.00811709      -0.00085263       0.00026922
C       15.49224580      11.25612261      16.48977899       0.00358502      -0.00044496       0.00429407
C       18.19994454      11.04020367      17.14221260      -0.00287990      -0.00173446       0.00533902
C       14.81203346      11.30933298      18.87998889      -0.00053033      -0.00197764       0.00434430
C       16.45487909      11.28159524      15.48451531      -0.00558759      -0.00016255      -0.00386311
C       17.81727617      11.22807244      15.81647795      -0.00773922      -0.00192937       0.00737198
C       18.85941036      11.42834463      14.76192932      -0.00284480       0.00178263       0.01193664
H       14.43700757      11.32776793      16.23373224       0.00881088      -0.00184918       0.00338147
H       19.25926889      10.95501697      17.38633991       0.00294816      -0.00071450      -0.00064776
O       13.60462843      11.36688099      18.46873392      -0.00142495       0.00529981       0.01138903
O       15.17373322      11.42275461      20.10584719      -0.00761619      -0.00932383       0.00691209
H       16.16456895      11.37075705      14.44075147      -0.00639370       0.00048822      -0.00917555
O       20.06840379      11.56064644      15.15002077      -0.00289194      -0.00340627      -0.00865749
O       18.43657186      11.49638570      13.55611713       0.00711516       0.00738675       0.01082896
N       17.61267234      10.75013933      19.45122388      -0.00305424      -0.00083438      -0.00432319
H       18.58518744      10.59797145      19.68281100      -0.00174507      -0.00294800       0.00084617
H       16.92306416      10.83927168      20.19981115       0.00138014      -0.00015825      -0.00695776
C        5.26251498      11.36050722       7.25623472      -0.00825933       0.02620229      -0.02065965
C        4.93021320      11.04799633       5.89370890       0.01831547      -0.00011745      -0.02736083
C        6.57589427      11.68507961       7.58332149       0.02149947      -0.01480205      -0.01441534
C        5.95594672      11.10901593       4.92316550       0.00827415      -0.00563694      -0.01781734
C        4.21023817      11.40296831       8.30490421      -0.03304353      -0.02893232       0.03632246
C        7.57391447      11.71576598       6.61248502       0.02487580      -0.02472528      -0.01442340
C        7.26451141      11.42651423       5.27318311      -0.01230047       0.04690721      -0.01914049
C        8.31166112      11.50288023       4.20354685      -0.00273086      -0.06643379       0.03617435
H        6.81984277      11.92375020       8.61682297      -0.02004144      -0.01988880       0.00510467
H        5.72003778      10.91395467       3.87656724      -0.01324289      -0.02583227       0.00479078
O        4.60340298      11.53487604       9.51184973       0.04843084       0.06272063       0.01381740
O        2.98002051      11.35484110       7.94341535      -0.04033878       0.03846332      -0.03474623