504
Lattice="20.983426040550686 0.0 0.0 0.0 20.983426040550686 0.0 0.0 0.0 20.983426040550686" Properties=species:S:1:pos:R:3:forces:R:3 energy=-3715.197441719126 stress="0.0002737120995316474 3.301978413672768e-05 0.0002112956680924599 3.301978413672768e-05 -0.00038756711823535435 1.147531493581846e-05 0.0002112956680924599 1.147531493581846e-05 0.00017963783229977062" pbc="T T T"
C        7.27501158       0.84152008       7.24322062       0.00232216       0.00014983       0.00497047
C        6.00138908       0.25841901       7.56115565       0.00248083       0.00016674       0.00348247
C        7.55161270       1.20975355       5.93071543      -0.00070150      -0.00224673       0.00501635
C        5.00756140       0.23848140       6.55567264       0.00106513      -0.00141204       0.00285235
C        8.30100566       1.04522220       8.30223050      -0.00381350      -0.00024066      -0.00341141
C        6.57525530       1.12494775       4.94082354       0.00035971      -0.00235541       0.00520956
C        5.28208578       0.68711278       5.26602644      -0.00177626      -0.00188933       0.00159508
C        4.19432819       0.74973428       4.23711445      -0.00226773      -0.00103608      -0.00102778
H        8.54037922       1.59583211       5.68776955      -0.00336095      -0.00222123       0.00252539
H        4.00910517      -0.13051639       6.79337284      -0.00196684      -0.00173830      -0.00123465
O        9.50434635       1.20923788       7.90185486       0.00037354      -0.00564175       0.00101038
O        7.91878545       1.09125384       9.52322109      -0.00434538       0.00424782      -0.00359178
H        6.79814917       1.42359769       3.91872586      -0.00200020      -0.00315071       0.00342162
O        2.98182913       0.73248984       4.64020420      -0.00222218      -0.00072548       0.00087570
O        4.58643130       0.87211799       3.02291882      -0.00061090      -0.00126201      -0.00060591
N        5.77438476      -0.28333537       8.77637297       0.00142637       0.00037507       0.00106105
H        4.89376077      -0.73665387       8.98302155      -0.00104852      -0.00199636       0.00338678
H        6.42430582      -0.10852493       9.54391609      -0.00149185       0.00012594      -0.00072184
C       17.89009625       0.78871036      17.61866921      -0.00263420       0.00123021      -0.00427591
C       16.62175643       0.18549256      17.92382239      -0.00167405      -0.00019921      -0.00186293
C       18.17097761       1.15807649      16.30731511      -0.00341166       0.00003652      -0.00335978
C       15.63012360       0.17206341      16.91546250      -0.00065470       0.00010970       0.00198754
C       18.89474942       1.02593284      18.69167991      -0.00152088       0.00029810      -0.00309236
C       17.19763616       1.07302690      15.31236785       0.00152429       0.00191586      -0.00232111
C       15.90111790       0.64010999      15.63169111       0.00790625       0.00180511       0.00640158
C       14.79965465       0.73725584      14.61673049       0.00417809      -0.00074158       0.00026978
H       19.15954028       1.55008750      16.07140898      -0.00694289      -0.00200602      -0.00061343
H       14.63283870      -0.20364838      17.14849413      -0.00212536       0.00024636      -0.00067766
O       20.10552168       1.20526216      18.32245045      -0.00054226      -0.00017900       0.00025060
O       18.47914491       1.08455811      19.90227689       0.00018409       0.00035146      -0.00218900
H       17.42340749       1.37402473      14.29144574      -0.00272626       0.00101008      -0.00229922
O       13.59693469       0.73939779      15.04839025       0.00292196      -0.00339206       0.01384306
O       15.16431833       0.86645781      13.39485243       0.00511079      -0.01119483       0.01796514
N       16.39258009      -0.37915508      19.12816887       0.00103488       0.00303026      -0.00295214
H       15.51903922      -0.85385478      19.31689502       0.00158280       0.00170959      -0.00138335
H       17.02955740      -0.21360515      19.90749798      -0.00089679       0.00068910      -0.00428235
C       17.75729244       1.35762045       5.25913908       0.00071591      -0.00047038      -0.00341719
C       16.44486508       1.85531675       4.94932311       0.00617569       0.00147855      -0.00150040
C       18.06615256       1.01137064       6.57009109       0.00087152      -0.00158472      -0.00269163
C       15.46180366       1.82039395       5.96516079       0.00266616       0.00064698      -0.00165815
C       18.78487233       1.19784536       4.19626057      -0.00443860       0.00109966       0.00355601
C       17.09308395       1.03077152       7.56579750       0.00791232      -0.00331437       0.00531547
C       15.77327861       1.38864735       7.25296250       0.00273776       0.00196108       0.00233357
C       14.69686159       1.25878562       8.28770558      -0.00334327       0.00256065       0.02504843
H       19.08224055       0.70290179       6.80862995      -0.00109180       0.00135806      -0.00136422
H       14.44149624       2.12977970       5.73530326      -0.00564799      -0.00315966       0.00902418
O       19.98763250       1.01676122       4.58909374      -0.00287885       0.00185386      -0.00197365
O       18.40379959       1.19318526       2.97152063      -0.00133223       0.00216408       0.00426962
H       17.33992408       0.74089305       8.58433151       0.00501377      -0.00843803       0.01028342
O       13.48630715       1.24867329       7.88308608      -0.00188210       0.01465523      -0.01549628
O       15.08973282       1.11837764       9.50001655       0.02201366       0.00728278       0.00131699
N       16.16795908       2.36724086       3.73141501      -0.00250853      -0.00327704       0.00649294
H       16.82975659       2.24020341       2.96443399      -0.00729334       0.00082829       0.01232039
H       15.25536269       2.75411698       3.52922110       0.00254997      -0.00216990       0.00687977
C        7.40708401       1.42659382      15.90562796       0.00320970      -0.00167837      -0.00332897
C        6.12264850       2.00118203      15.61497980       0.00169784      -0.00106020      -0.00042958
C        7.70129649       1.02807157      17.20531219      -0.00147344      -0.00163692      -0.00293334
C        5.13784650       1.97709302      16.62813224       0.00090470       0.00116412       0.00137350
C        8.41134494       1.23801380      14.82400949       0.00466933       0.00698940       0.00057486
C        6.72766738       1.05663513      18.20218555       0.00028138      -0.00041345      -0.00059897
C        5.42532310       1.48032911      17.89677439      -0.00006728       0.00030414       0.00202615
C        4.32700800       1.34687410      18.90703835      -0.00015570      -0.00018767       0.00178230
H        8.70038575       0.65661927      17.42852795      -0.00259776      -0.00077269      -0.00057105
H        4.13249089       2.33893445      16.40887088       0.00005014       0.00222096       0.00265953
O        9.62399618       1.05554456      15.18860131       0.00487065       0.00070872      -0.00026421
O        7.99787303       1.21634343      13.61267477      -0.00538915       0.00628109       0.00357640
H        6.95553475       0.71230217      19.20897008      -0.00022181      -0.00072869       0.00047735
O        3.12622000       1.35429525      18.47325190       0.00039975      -0.00012713       0.00007903
O        4.69098076       1.18710089      20.12649376       0.00082628      -0.00052994       0.00148662
N        5.86897272       2.56626944      14.41623558      -0.00043396       0.00101033       0.00231879
H        6.51038749       2.41765870      13.63665883       0.00120705      -0.00015107       0.00231116
H        4.98059049       3.01524243      14.23447493       0.00124378       0.00232731       0.00070714
C        5.32651133       5.29726625       1.09370202      -0.00051602      -0.00274925      -0.00181057
C        6.68240780       4.95502308       0.76254291      -0.00215248      -0.00255772      -0.00268079
C        5.00908519       6.61451615       1.41159193      -0.00316102      -0.00397621      -0.00024087
C        7.66609613       5.96484605       0.84879528      -0.00132925      -0.00159941      -0.00173100
C        4.26336473       4.25815285       1.10909592       0.00195474       0.00117709       0.00000028
C        5.98891992       7.60335158       1.44644387      -0.00457724      -0.00033283       0.00071867
C        7.32489782       7.27543268       1.16975245      -0.00018363       0.00031307       0.00236489
C        8.38439428       8.33049348       1.16990211       0.00640335       0.00801765       0.00349609
H        3.97546817       6.86489571       1.64245333      -0.00168128       0.00034180       0.00119042
H        8.70906565       5.71745973       0.64695380       0.00124618       0.00298172      -0.00296545
O        4.61926274       3.02709791       1.09732802       0.00151245       0.00168075       0.00084069
O        3.05387626       4.66574208       1.18474587       0.00159855      -0.00060265       0.00031751
H        5.73262581       8.63287716       1.68588195      -0.00221707       0.00362922      -0.00036955
O        7.97503368       9.54144322       1.11400857      -0.00792747       0.00706969       0.00038494
O        9.60200440       7.94289821       1.17894932      -0.00121814      -0.00594541       0.00997729
N        7.01375695       3.71412009       0.34742663       0.00037645       0.00140494      -0.00298829
H        6.32096840       2.96526839       0.39924662       0.00216089       0.00402934      -0.00195985
H        7.97126297       3.48702297       0.11421902      -0.00182205       0.00350994      -0.00343786
C       15.72049711      15.88662220       1.00426080      -0.00007824      -0.00074057       0.00035899
C       15.41298266      17.21375555       1.45064557      -0.00045541       0.00043751      -0.00086914
C       17.00054419      15.58476664       0.55140920       0.00020508      -0.00024387      -0.00011618
C       16.41299096      18.20341523       1.32913674      -0.00023937       0.00011641      -0.00109752
C       14.68040813      14.82687238       1.03407593      -0.00142390      -0.00227934      -0.00099896
C       17.97993399      16.56930004       0.46536919      -0.00019713       0.00074959      -0.00031909
C       17.68013179      17.88580183       0.84257149       0.00007175       0.00050159      -0.00026324
C       18.73447903      18.94118186       0.77429515      -0.00051643       0.00057977      -0.00031469
H       17.22690121      14.56100633       0.25945610       0.00038799      -0.00093601       0.00071301
H       16.19650358      19.22604265       1.64187778      -0.00084475      -0.00039330      -0.00096649
O       13.45023194      15.18719813       1.01458515      -0.00104678       0.00059801      -0.00163104
O       15.09282686      13.61796194       1.01876952       0.00086696      -0.00115871       0.00016691
H       18.97971051      16.32986990       0.11034108      -0.00038456       0.00020082       0.00007991
O       19.94477148      18.54021469       0.71957883      -0.00065576      -0.00003469      -0.00082464
O       18.34241222      20.16505392       0.82108405      -0.00114639       0.00012568      -0.00092507
N       14.21683483      17.49980738       2.00807288      -0.00084313      -0.00065277      -0.00061831
H       13.44999831      16.82952968       1.93560044      -0.00081872      -0.00048595      -0.00074969
H       14.02135037      18.42962142       2.35462695      -0.00087482       0.00021366      -0.00088329
C        7.17852402      15.75215301       0.73108387       0.00050647       0.00091678      -0.00123314
C        5.82966615      15.42558906       0.36441176       0.00155349       0.00065322      -0.00287900
C        7.49946490      17.05551802       1.09773849       0.00049736       0.00028004      -0.00062252
C        4.84841923      16.43577057       0.47020170       0.00080705      -0.00022237      -0.00235704
C        8.23799769      14.71132248       0.73186842       0.00003152       0.00137908      -0.00138868
C        6.51894435      18.03960243       1.17898644       0.00025100      -0.00027359       0.00012206
C        5.18517596      17.72422628       0.88115476       0.00050784      -0.00085946      -0.00033771
C        4.12895143      18.77904848       0.96757757      -0.00004781      -0.00071678       0.00009452
H        8.53535591      17.29685298       1.32768696       0.00008550       0.00079243       0.00017433
H        3.81172439      16.20602351       0.22034014       0.00097639       0.00007181      -0.00247148
O        7.88085138      13.47879430       0.76862684       0.00050176       0.00167431      -0.00067060
O        9.44504441      15.12281745       0.75940698       0.00122035      -0.00058058      -0.00055618
H        6.77465952      19.05483530       1.47361449      -0.00086983      -0.00049402       0.00171548
O        4.53948434      19.98513955       1.04809508      -0.00054775      -0.00063563       0.00054555
O        2.90798140      18.39398765       0.91212157      -0.00027195      -0.00012219      -0.00008085
N        5.51403393      14.19591113      -0.09687039       0.00085067       0.00117006      -0.00399880
H        4.56652424      13.97549051      -0.37420024       0.00292346       0.00139357      -0.00363768
H        6.19338044      13.43933102      -0.00148041       0.00193071       0.00093912      -0.00420984
C       15.86455524       7.40740847       1.03729015       0.00260753      -0.00157663      -0.00149074
C       15.57082979       6.12465621       0.46640276      -0.00022738      -0.00178703      -0.00175128
C       17.13767139       7.67180662       1.53016275       0.00096969       0.00030155       0.00087233
C       16.56123974       5.12132476       0.54960805      -0.00007010       0.00029803      -0.00052183
C       14.80922060       8.45184094       1.09805370       0.00135373      -0.00093302      -0.00008687
C       18.11422747       6.67906825       1.56190224       0.00066058       0.00052780       0.00064290
C       17.81518795       5.39151392       1.09440535      -0.00013636       0.00136790      -0.00090610
C       18.84584286       4.30863301       1.14593087       0.00068258       0.00000327      -0.00053854
H       17.35714633       8.66936443       1.90732989       0.00063642      -0.00018001       0.00149629
H       16.34477785       4.12337171       0.16545430       0.00146572       0.00024824      -0.00163867
O       13.59031712       8.05616404       1.11760476       0.00200969       0.00407439      -0.00007046
O       15.19125379       9.66826897       1.17988727      -0.00113436      -0.00091823       0.00038371
H       19.10833559       6.88654666       1.95197826       0.00055611      -0.00008547       0.00073401
O       20.06653582       4.67323193       1.23500918       0.00086546       0.00040256      -0.00013145
O       18.41939666       3.09996194       1.05671803       0.00126869      -0.00024800      -0.00058144
N       14.40182072       5.89115058      -0.16850374       0.00058724       0.00393595       0.00173693
H       14.22895892       4.99883292      -0.61273995       0.00169871       0.00064262      -0.00096916
H       13.62312114       6.54384169      -0.07621215       0.00187055      -0.00293465       0.00022338
C        0.96191218       5.17968356       5.44339245       0.00090253      -0.00692240      -0.00424185
C        0.97704066       4.84154458       6.83979839       0.00097598      -0.00952046      -0.00428208
C        0.99151335       6.51831142       5.06447184      -0.00045950      -0.00228344      -0.00712223
C        1.06026568       5.89091724       7.78227852      -0.00203661      -0.00110279      -0.00372644
C        0.95260533       4.12865505       4.39221495       0.00041921       0.00015884      -0.00073326
C        1.05436909       7.53705480       6.01019320      -0.00402825      -0.00037332       0.00458798
C        1.09709761       7.22252113       7.37732071       0.00155184       0.00780359       0.01830325
C        1.13719651       8.30039594       8.41381788      -0.00216689       0.01135850       0.02501903
H        0.96716059       6.76413264       4.00549750      -0.00053623       0.00379516      -0.01461426
H        1.08875123       5.65533594       8.84680177       0.00176490       0.00033669      -0.00245684
O        0.95388654       2.89034513       4.73067862      -0.00031796       0.00139390       0.00200182
O        0.98850024       4.54965430       3.18599345       0.00040851       0.00437512       0.00094029
H        1.05931972       8.57884596       5.70004523       0.00122416       0.00506391       0.00173318
O        1.06190599       9.50850397       7.98513715       0.00607943      -0.00031573      -0.03378591
O        1.19549308       7.93433132       9.63395443      -0.00226969      -0.00522809       0.01654364
N        0.91268406       3.55944797       7.24785555       0.00132616      -0.00648743       0.00009686
H        0.88042296       2.81477704       6.54844717       0.00108584      -0.00020287      -0.00201450
H        0.91539041       3.32940828       8.23232386       0.00260566      -0.00036986       0.00365899
C        0.94585424      17.98178385      17.57846910       0.00028394       0.00080301       0.00006906
C        0.41203442      18.27435140      16.28093879      -0.00027523       0.00194355       0.00042744
C        1.43789089      16.71269807      17.86402731       0.00037931       0.00130161       0.00113495
C        0.48177694      17.26511018      15.29532759      -0.00011908       0.00117912       0.00038391
C        0.93613731      19.01609216      18.64164505       0.00029810       0.00008834      -0.00037634
C        1.47198241      15.72516064      16.88543288       0.00046868       0.00122603       0.00071495
C        0.99836181      16.00618250      15.59681106       0.00097741       0.00038061      -0.00009934
C        1.01383733      14.93053616      14.55719611       0.00480133      -0.00805377       0.00042005
H        1.79784882      16.49924150      18.86873373       0.00091083      -0.00030343       0.00041014
H        0.11001641      17.46676405      14.28964421      -0.00057662       0.00087180      -0.00032156
O        0.96460669      20.25157232      18.29989222       0.00060247      -0.00006663      -0.00010355
O        0.95436733      18.58333441      19.84248271      -0.00007184       0.00038969      -0.00020504
H        1.85768057      14.73301696      17.10954065      -0.00034683       0.00058555      -0.00096579
O        1.05933980      13.73209532      14.99261668       0.00143257      -0.00436409      -0.00093205
O        0.94527760      15.29725612      13.33220869       0.00001119       0.00460202       0.00128025
N       -0.17817541      19.46520361      16.03447613      -0.00027190       0.00123814       0.00024926
H       -0.05155533      20.23454455      16.69323853       0.00036909       0.00094687      -0.00030747
H       -0.58609207      19.66460685      15.13030659       0.00010191      -0.00046271      -0.00053033
C        1.20727271       5.49880148      17.90340722       0.00052881       0.00273084       0.00282473
C        1.42326504       6.87697343      18.24662593      -0.00212945       0.00467102      -0.00463595
C        0.97792631       5.14785556      16.57561585      -0.00051421       0.00498291       0.00262853
C        1.34442014       7.84124031      17.21740126       0.00096328       0.00176992      -0.00683622
C        1.21253365       4.44100492      18.94510519       0.00147914      -0.00256268       0.00305501
C        0.92256776       6.11316868      15.57521151       0.00579807       0.00432663       0.00219592
C        1.10848511       7.46616445      15.89809649       0.00852061       0.00150498      -0.00638200
C        1.10855430       8.50923125      14.82544583      -0.00381792      -0.00943106       0.00522816
H        0.83728004       4.09864857      16.32457915       0.00089130       0.00344490       0.00214903
H        1.48234839       8.89688036      17.45464877      -0.00194833      -0.00516271       0.00920687
O        1.21022449       4.77258387      20.18441989       0.00079549      -0.00418957       0.00332849
O        1.16454550       3.23780394      18.51505812       0.00098271      -0.00247515       0.00152456
H        0.74249236       5.83161605      14.54036557       0.00170186       0.00383745       0.00562698
O        1.15033598       8.07545856      13.62354598      -0.02773066       0.00848940      -0.01199951
O        1.11240742       9.73028459      15.19754732       0.00814482      -0.00685858      -0.01780131
N        1.71445822       7.24483602      19.50986374      -0.00029089      -0.00176014       0.00033460
H        1.87361275       8.21696145      19.73869391       0.00005691      -0.00636483       0.00871698
H        1.67381611       6.54577755      20.25383981       0.00178369       0.00022384       0.00799518
C        0.94157973      17.63586425       5.11075054      -0.00136571      -0.00174933       0.00301052
C        1.30657240      16.28610063       4.79276612      -0.00054370      -0.00094747       0.00187943
C        0.55905391      17.96040876       6.40887002      -0.00129838      -0.00253924       0.00176157
C        1.21087724      15.31096991       5.81076907       0.00021246      -0.00165159      -0.00071689
C        0.98556815      18.69886401       4.07444006      -0.00107310      -0.00154678       0.00118798
C        0.48965403      16.98820080       7.40158694      -0.00110061      -0.00040289       0.00107807
C        0.81407759      15.65749686       7.10191356      -0.00088008       0.00360851      -0.00189182
C        0.78735722      14.62263715       8.17982646      -0.00890996       0.00459062      -0.00049153
H        0.31343113      18.99458495       6.64205505      -0.00080448      -0.00457733       0.00015480
H        1.47919973      14.27676008       5.58953402       0.00025463      -0.00221426       0.00088707
O        1.00459706      18.36407977       2.83658008      -0.00083186       0.00004409       0.00059810
O        0.94753576      19.90177133       4.50369766      -0.00085906      -0.00099480      -0.00053406
H        0.19333738      17.24997725       8.41473524      -0.00161868      -0.00091862      -0.00018621
O        0.76634299      15.05143818       9.38084471      -0.00230929      -0.00244633       0.00424188
O        0.83001751      13.39081777       7.81293903      -0.01000551       0.01113282      -0.00766170
N        1.76426743      15.96284712       3.56498572      -0.00075653       0.00002547       0.00297223
H        2.03644957      15.01307270       3.34975917       0.00018089       0.00081393       0.00227333
H        1.71169740      16.65186232       2.81226296      -0.00005000      -0.00164720       0.00274266
C        7.30367117      11.83741774      17.72026562       0.00070418      -0.00015107       0.00132773
C        7.65070991      12.25371955      16.38944365       0.00160648       0.00233136       0.00171157
C        5.96460735      11.64012929      18.04294367       0.00070068      -0.00134626       0.00095022
C        6.63016195      12.29314644      15.41132084       0.00091072       0.00150849       0.00057561
C        8.35345625      11.61658816      18.75370718       0.00038583      -0.00151410       0.00033465
C        4.96658419      11.74390146      17.07632117       0.00249151      -0.00168311      -0.00130273
C        5.30598585      12.01712789      15.74168465      -0.00106457      -0.00199036      -0.00122682
C        4.25939940      11.94789150      14.66912710      -0.00437734       0.00397523      -0.00133259
H        5.70381953      11.37307637      19.06508299      -0.00139054      -0.00292607       0.00042413
H        6.88350613      12.53793681      14.37912753       0.00213440       0.00340301       0.00061933
O        7.94271978      11.49939397      19.95897475       0.00101597      -0.00087777       0.00021790
O        9.57537187      11.51331647      18.38312500       0.00073817      -0.00104488       0.00208922
H        3.92333799      11.58299772      17.33934201       0.00249360      -0.00234378      -0.00335838
O        4.65601562      11.91219764      13.45411566       0.00364130       0.00321249       0.00646720
O        3.04931975      11.87285069      15.07640321      -0.01101173       0.00486880      -0.00797052
N        8.91201788      12.62188286      16.08590484       0.00192506       0.00421635       0.00300106
H        9.66341018      12.45446182      16.75617376       0.00184290       0.00373822       0.00279365
H        9.14697229      12.94450703      15.15646824      -0.00034986       0.00562262       0.00128272
C       17.61836465      11.85153485       7.41854708      -0.00839231      -0.00666282      -0.00788666
C       17.93614393      12.43266430       6.14289300      -0.00439708       0.00019302      -0.00866278
C       16.29883837      11.51990313       7.70587405      -0.00954684      -0.00338043      -0.00085245
C       16.92816308      12.45603106       5.15117802      -0.00667863      -0.00145123      -0.00197471
C       18.68607061      11.58963488       8.42216944      -0.00273606       0.00034751       0.00762168
C       15.30557328      11.61596725       6.73263253      -0.00730716      -0.00144010      -0.00251899
C       15.63498433      12.01999021       5.42976095      -0.00302261      -0.00287662       0.00040650
C       14.62001531      11.91848202       4.32910822       0.00696689      -0.00141253       0.00589303
H       16.05449213      11.14637421       8.69893066       0.00007419      -0.00196000       0.00544511
H       17.16789584      12.81315534       4.14864762       0.00407283      -0.00072056       0.00310179
O       18.31190744      11.41533276       9.63241083      -0.00955043       0.02557797      -0.00333900
O       19.89459148      11.50748175       8.00801183      -0.00873037       0.01552739      -0.03294291
H       14.27765755      11.34351348       6.96223192      -0.00256103      -0.00260938       0.00663148
O       15.05448046      11.88715564       3.12887995      -0.00162225      -0.00041524       0.00607589
O       13.39524814      11.81348601       4.69413826       0.00179730       0.00049610      -0.00175357
N       19.15297688      12.96543276       5.90719148       0.00149249      -0.00351689       0.00938199
H       19.92633683      12.79069586       6.54925617       0.00193052      -0.00003354       0.00367550
H       19.35413434      13.42650056       5.02923370      -0.00005380       0.00305723      -0.00376105
C       15.85062804      11.17182858      17.83636684       0.00349463      -0.00400127      -0.00472859
C       17.23359002      10.98577503      18.18140855      -0.00012611      -0.00261880      -0.00363168
C       15.48652470      11.26029525      16.49579154       0.00483155      -0.00112750      -0.00331463
C       18.19378624      11.04104233      17.14558627      -0.00064584       0.00384725       0.00641537
C       14.80774717      11.31185550      18.88650397       0.00175316      -0.00316129      -0.00088932
C       16.44804020      11.28560858      15.48912200       0.00035037       0.00742214      -0.00143470
C       17.81114836      11.23081080      15.82014951      -0.00736829      -0.00214138       0.01569259
C       18.85540542      11.43067496      14.76740488      -0.00872093      -0.00571847       0.02442155
H       14.43113508      11.33178343      16.24058403       0.00673330      -0.00059241       0.00223406
H       19.25341677      10.95486850      17.38882450      -0.00321293      -0.00294804       0.00004029
O       13.60042170      11.37368140      18.47547677       0.00123724      -0.00142749       0.00214890
O       15.16940856      11.41905116      20.11293570      -0.00602758       0.00038097       0.00021568
H       16.15624401      11.37761774      14.44572974      -0.00107126      -0.00297395      -0.00070364
O       20.06657732      11.54404228      15.15334158      -0.00493371       0.00603940      -0.01482875
O       18.43058449      11.51756848      13.56278913       0.01425979      -0.01607307       0.00537606
N       17.60954909      10.75690578      19.45558414      -0.00044460      -0.00127792      -0.00532617
H       18.58252618      10.60464043      19.68542703      -0.00489013      -0.00234614       0.00313184
H       16.92028619      10.84546653      20.20450597       0.00400435      -0.00297650      -0.00318088
C        5.24547144      11.38913061       7.23116893      -0.00325177      -0.00152973       0.00056871
C        4.91577722      11.06477338       5.87031245       0.00150859      -0.00328359       0.00028354
C        6.56563603      11.67946886       7.56327214      -0.00306932      -0.00526781       0.00168595
C        5.94239981      11.11579217       4.90063124       0.00259098      -0.00435840       0.00143916
C        4.19317290      11.44493471       8.28301416       0.00472849      -0.00631801      -0.00291939
C        7.56556647      11.70429998       6.59417980      -0.00255027      -0.00554381       0.00247551
C        7.24952282      11.43955395       5.25218691       0.00303393      -0.00444041       0.00044742
C        8.29742389      11.53335117       4.18815041       0.00123835      -0.00234383       0.00166359
H        6.80968568      11.89874701       8.60086872      -0.00157126      -0.00701428       0.00084092
H        5.70596294      10.90760121       3.85656294       0.00342142      -0.00449811       0.00068241
O        4.59309544      11.56628866       9.48967168      -0.00857969       0.00419639      -0.00456464
O        2.96258910      11.42264431       7.91876104      -0.00018879      -0.00212838      -0.00271771