504
Lattice="20.9850182591876 0.0 0.0 0.0 20.9850182591876 0.0 0.0 0.0 20.9850182591876" Properties=species:S:1:pos:R:3:forces:R:3 energy=-3715.1963587652617 stress="0.00032746709952118135 2.5734057435616807e-05 0.0001704877794149804 2.5734057435616807e-05 -0.0003685672495949703 6.410756979984664e-06 0.0001704877794149804 6.410756979984664e-06 0.00020745194723772705" pbc="T T T"
C        7.27737735       0.86114649       7.23974671       0.00092287      -0.00229098       0.00087407
C        6.00472066       0.27617435       7.55848068       0.00065592       0.00064759       0.00200915
C        7.55279308       1.22931955       5.92718641       0.00086515      -0.00159792       0.00285498
C        5.01001444       0.25531254       6.55363658       0.00271957      -0.00004677       0.00083566
C        8.30473116       1.06432279       8.29754815      -0.00738882       0.00056611      -0.00381704
C        6.57605123       1.14367408       4.93774960       0.00001226      -0.00248663       0.00592381
C        5.28352885       0.70466676       5.26377503      -0.00058904      -0.00220972       0.00053349
C        4.19591239       0.76692881       4.23463572      -0.00195059      -0.00139323      -0.00101536
H        8.54121962       1.61575908       5.68379862      -0.00073604      -0.00099584       0.00130247
H        4.01205057      -0.11517468       6.79179461       0.00283948       0.00045301      -0.00206791
O        9.50874266       1.22078483       7.89787043      -0.00015149      -0.00302188       0.00246732
O        7.92083159       1.11702651       9.51817224       0.00008198       0.00411512      -0.00494762
H        6.79821144       1.44235053       3.91539053      -0.00278915      -0.00387372       0.00689598
O        2.98343004       0.75025307       4.63811479      -0.00217034      -0.00049674      -0.00136161
O        4.58758120       0.88835413       3.02025968      -0.00145772      -0.00058758      -0.00100643
N        5.78026591      -0.26666213       8.77365390      -0.00127934      -0.00116500       0.00016737
H        4.90139082      -0.72285677       8.98153172      -0.00187100      -0.00077469       0.00047323
H        6.43052625      -0.09113508       9.54062369      -0.00367689      -0.00181793       0.00048293
C       17.88203973       0.77964130      17.62317730      -0.00200830       0.00029709      -0.01031864
C       16.61324761       0.17633124      17.92894956       0.00323375       0.00460354      -0.00462786
C       18.16306171       1.14912525      16.31187418      -0.00645152       0.00148336      -0.00343553
C       15.62171762       0.16201050      16.91979696       0.00608278      -0.00569000       0.01012204
C       18.88868216       1.01693001      18.69452198      -0.00261754      -0.00267061      -0.00408223
C       17.18965088       1.06309014      15.31699497       0.00867353       0.00143265      -0.00304899
C       15.89386120       0.62748008      15.63486268       0.02227591       0.00725454       0.02363866
C       14.79581516       0.72496258      14.61722769       0.01817048       0.00041347      -0.01047291
H       19.15130563       1.54254680      16.07559437      -0.01683667      -0.00694738       0.00191494
H       14.62411912      -0.21358728      17.15204617       0.00241713       0.00079427       0.00148960
O       20.09875602       1.19610747      18.32290380      -0.00020157       0.00210893       0.00652537
O       18.47511461       1.07540512      19.90598189       0.00725977       0.00178708      -0.00225568
H       17.41485125       1.36536934      14.29636775       0.00193737       0.00077964      -0.00264386
O       13.59191823       0.72263346      15.04430893       0.00838894       0.00308548       0.00037537
O       15.16727811       0.86035171      13.39689630      -0.03639005      -0.01085217       0.02528981
N       16.38584058      -0.38591915      19.13508420       0.00145964       0.00724958      -0.01454817
H       15.51277948      -0.86095288      19.32656995       0.01214980       0.00814078      -0.00317391
H       17.02625916      -0.21903762      19.91187714      -0.01606942      -0.00387550      -0.00928905
C       17.76681767       1.35213583       5.26298456      -0.00103462      -0.00343126       0.00115523
C       16.44940636       1.83616050       4.95508671      -0.00093498      -0.00519677      -0.00335997
C       18.08075097       1.00970903       6.57395813      -0.00047334      -0.00541897       0.00331419
C       15.46952528       1.79601388       5.97343957      -0.00064004       0.00138575       0.00038021
C       18.79246451       1.19818209       4.19787596      -0.00222509       0.00018588       0.00334054
C       17.10944331       1.01979162       7.57167141       0.00185086      -0.00018159       0.00598801
C       15.78544995       1.36460496       7.26020869       0.00262570       0.01243259       0.00166773
C       14.70845095       1.23112977       8.29353973       0.00087355       0.01559550       0.00855983
H       19.09988001       0.71037662       6.81062259       0.00291524       0.00122691      -0.00012328
H       14.44703933       2.09919373       5.74531750      -0.00655796      -0.00409657       0.00952842
O       19.99675412       1.02227973       4.58866215      -0.00087471       0.00314499       0.00018053
O       18.40996888       1.19213240       2.97370054      -0.00601800       0.00375635       0.00415987
H       17.36059225       0.73420637       8.59047179       0.00310992      -0.01291704       0.00409203
O       13.49760233       1.25754839       7.89027667      -0.00150558      -0.01230165      -0.00225344
O       15.09938213       1.05460653       9.50202361       0.02446365       0.05880883      -0.00419328
N       16.16159045       2.33623641       3.73510471      -0.00302047       0.00347746       0.00038118
H       16.82183385       2.21294521       2.96663036       0.00593298      -0.00133013       0.00688336
H       15.24399980       2.71078196       3.53357354      -0.00756654       0.00229027       0.00968061
C        7.39744043       1.43242140      15.89452581       0.00611038      -0.00057653      -0.00571680
C        6.10642699       1.99135253      15.60159168       0.00323643       0.00140113       0.00233873
C        7.69535951       1.04193523      17.19574658       0.00088923       0.00098899      -0.00402681
C        5.12451751       1.96893771      16.61753387       0.00025457       0.00034602       0.00279638
C        8.40480357       1.24841514      14.81473773      -0.00416276       0.00076060      -0.00014418
C        6.72366038       1.07072015      18.19437004       0.00338788      -0.00137544       0.00073710
C        5.41802609       1.48409574      17.88927952       0.00098079      -0.00096031       0.00349414
C        4.32249747       1.35135662      18.90248767      -0.00038030       0.00010477       0.00088331
H        8.69692459       0.67735305      17.41884128      -0.00241289      -0.00138169       0.00297785
H        4.11628227       2.32242556      16.39826433      -0.00202802       0.00236509       0.00021834
O        9.61643068       1.06306376      15.18052866       0.00118522       0.00483514       0.00110861
O        7.99395578       1.23135038      13.60210076      -0.00366204      -0.00589306       0.00306341
H        6.95649472       0.73493675      19.20274588      -0.00161292      -0.00239218       0.00454719
O        3.12089376       1.35625533      18.47053191      -0.00022646       0.00050785      -0.00012270
O        4.68892118       1.19479087      20.12151557       0.00018395      -0.00002289       0.00026497
N        5.84239749       2.54049251      14.39780007       0.00226472       0.00139199       0.00192165
H        6.48616329       2.39308842      13.61991167       0.00175207       0.00230476       0.00279510
H        4.94776458       2.97568577      14.21332290       0.00198989       0.00239665       0.00157774
C        5.31708376       5.31221567       1.07889475      -0.00044723      -0.00020632      -0.00018960
C        6.67607210       4.97232732       0.75896868      -0.00041220       0.00055460      -0.00123850
C        4.99369936       6.63045653       1.38719606       0.00000693      -0.00007501       0.00018119
C        7.65665416       5.98462158       0.84987730       0.00008329       0.00067420      -0.00067201
C        4.25749631       4.26969687       1.09499431       0.00047968       0.00019555       0.00039076
C        5.97081258       7.62207844       1.42560623       0.00015249       0.00017370       0.00070695
C        7.31068776       7.29508554       1.16618052       0.00062566       0.00083751       0.00044812
C        8.37140275       8.34913672       1.17906360       0.00074870       0.00073501       0.00132886
H        3.95756879       6.87929628       1.60849442      -0.00005783      -0.00001579       0.00041264
H        8.70168987       5.73914455       0.65646875       0.00032546       0.00063241      -0.00128928
O        4.61675267       3.03958668       1.08679280       0.00068666       0.00026785       0.00043373
O        3.04674355       4.67406180       1.16830032       0.00028452       0.00020428       0.00064563
H        5.70968658       8.65266176       1.65552319       0.00006012       0.00030361       0.00136372
O        7.96496608       9.56086497       1.11771231      -0.00016040       0.00058682       0.00129471
O        9.58809626       7.95864933       1.20271202       0.00035343      -0.00013501       0.00183124
N        7.01427369       3.73094523       0.35118758      -0.00042336       0.00083732      -0.00285657
H        6.32340471       2.98034284       0.40159286      -0.00038851       0.00074377      -0.00255136
H        7.97421674       3.50630079       0.12597209      -0.00050346       0.00118383      -0.00379131
C       15.73193563      15.87863999       1.00409894       0.00022628       0.00051160      -0.00029394
C       15.42410286      17.20313116       1.45814384      -0.00028583       0.00024709      -0.00061628
C       17.01210028      15.57951526       0.54987836       0.00012245       0.00041840       0.00007629
C       16.42284102      18.19439397       1.33898497      -0.00072984       0.00046915      -0.00064478
C       14.69116814      14.81929117       1.02720777       0.00039652       0.00078334      -0.00020662
C       17.99038271      16.56559226       0.46672004       0.00003271       0.00018128      -0.00016872
C       17.68944605      17.88053105       0.84865886      -0.00071728       0.00005027      -0.00040939
C       18.74151427      18.93848945       0.78025214       0.00003790       0.00102251      -0.00080289
H       17.23907059      14.55685475       0.25426253       0.00056541       0.00079275       0.00035974
H       16.20557215      19.21542531       1.65630723      -0.00065843       0.00076045      -0.00116182
O       13.46188581      15.18224939       1.00301969       0.00056386       0.00000698      -0.00036928
O       15.10197300      13.60993764       1.01184821       0.00033706       0.00046417       0.00062309
H       18.99009175      16.32857402       0.10985183       0.00026289       0.00078091      -0.00006881
O       19.95272381      18.54041825       0.72422928      -0.00008592       0.00053531      -0.00118737
O       18.34668378      20.16146502       0.82765038       0.00023420       0.00036126      -0.00129557
N       14.22922541      17.48495587       2.02068344      -0.00008760       0.00025791      -0.00107390
H       13.46147736      16.81617712       1.94467295       0.00022299       0.00045405      -0.00067375
H       14.03445136      18.41232823       2.37419983      -0.00051091       0.00006595      -0.00119080
C        7.18291319      15.76026652       0.74260590       0.00063654       0.00066053      -0.00171241
C        5.82808594      15.43020978       0.40171555       0.00092295       0.00075736      -0.00298272
C        7.50765669      17.06632658       1.09679916       0.00023662       0.00050184      -0.00082923
C        4.84927003      16.44263903       0.50731947       0.00062729       0.00040011      -0.00265592
C        8.24345585      14.72028430       0.73239832       0.00086584       0.00051935      -0.00102318
C        6.52840180      18.05160083       1.18183462      -0.00004635       0.00020004      -0.00052887
C        5.19146915      17.73550500       0.89867593       0.00020604       0.00001619      -0.00133896
C        4.13619378      18.79204492       0.97545932       0.00003890      -0.00045582      -0.00061716
H        8.54621626      17.30901595       1.31292407       0.00013352       0.00064353      -0.00032269
H        3.80969246      16.21086757       0.27188432       0.00094522       0.00004702      -0.00345034
O        7.88672393      13.48723045       0.77101849       0.00075481       0.00069206      -0.00069092
O        9.45094787      15.13055803       0.74910805       0.00072155       0.00112197      -0.00056750
H        6.78741153      19.06882629       1.46654459      -0.00041133       0.00002731       0.00030212
O        4.54594324      19.99877968       1.04894194      -0.00042593      -0.00057016      -0.00035480
O        2.91549341      18.40615134       0.91790285      -0.00014780      -0.00004596      -0.00071416
N        5.50143886      14.19471288      -0.03530884       0.00186701       0.00094537      -0.00448524
H        4.54767968      13.97198331      -0.28806679       0.00220083       0.00088392      -0.00558296
H        6.18372573      13.43986852       0.05314334       0.00181229       0.00073413      -0.00416162
C       15.85691747       7.39977884       1.03647087       0.00018794       0.00030560       0.00050662
C       15.56141721       6.11480884       0.47138064       0.00051064       0.00042551      -0.00003981
C       17.13215069       7.66662002       1.52253520       0.00009067       0.00030054       0.00078105
C       16.55364607       5.11297178       0.55126532       0.00062697       0.00069530      -0.00019259
C       14.80208185       8.44493625       1.09851585      -0.00006937       0.00007613       0.00082484
C       18.10965116       6.67487236       1.55268380       0.00013911       0.00040217       0.00059158
C       17.80974283       5.38591442       1.08963903       0.00034624       0.00056898       0.00001513
C       18.84206111       4.30471092       1.13995335       0.00003070       0.00047179      -0.00052983
H       17.35294878       8.66539612       1.89554697       0.00025039       0.00009534       0.00143026
H       16.33685099       4.11393480       0.17010237       0.00050811       0.00102024      -0.00070796
O       13.58233079       8.05182204       1.12046760       0.00028595       0.00039000       0.00116752
O       15.18647604       9.66065187       1.17904753       0.00030674       0.00055018       0.00108208
H       19.10524403       6.88436283       1.93784764       0.00013947       0.00006384       0.00063525
O       20.06226938       4.67214297       1.22540976       0.00001305       0.00048064      -0.00001855
O       18.41792383       3.09513551       1.05377638       0.00070919       0.00055043      -0.00161477
N       14.38860337       5.87816364      -0.15511051       0.00041853       0.00106280      -0.00003998
H       14.21364272       4.98406299      -0.59491756       0.00058825       0.00113829      -0.00077111
H       13.61028004       6.53080978      -0.05992969       0.00035513       0.00084302       0.00009330
C        0.96278690       5.19353216       5.43160220       0.00102665      -0.00370875      -0.00098346
C        0.97395143       4.85490710       6.82812216       0.00164991      -0.00682677      -0.00068862
C        0.99770438       6.53232984       5.05290741      -0.00046687      -0.00460786      -0.00411907
C        1.05457484       5.90414871       7.77101542      -0.00214281      -0.00433089       0.00144429
C        0.95186101       4.14223576       4.38070465       0.00007382       0.00071985       0.00027527
C        1.05985614       7.55064722       5.99953434      -0.00505748      -0.00533326      -0.00278765
C        1.09577368       7.23567905       7.36716671       0.00200209      -0.00069288      -0.00398821
C        1.13555270       8.31408530       8.40223887       0.00311400       0.01282860      -0.00611345
H        0.97805856       6.77794010       3.99344658      -0.00077981       0.00436717      -0.00304793
H        1.07807691       5.66921009       8.83562719       0.00296695      -0.00603201       0.00286702
O        0.95309920       2.90423499       4.72052800       0.00014403       0.00092511      -0.00185580
O        0.98641225       4.56202413       3.17405602      -0.00006710      -0.00067180      -0.00039692
H        1.06932188       8.59257897       5.68923768       0.00114717      -0.00252267       0.00355060
O        1.05528789       9.51944860       7.96687895       0.01596714       0.02877892       0.02545964
O        1.20074176       7.95196349       9.62349518      -0.01596019      -0.00324445      -0.00691015
N        0.90908995       3.57264614       7.23586043       0.00053967      -0.00520018       0.00064714
H        0.87856675       2.82887870       6.53540936       0.00050441      -0.00427286      -0.00163940
H        0.91162546       3.34075814       8.21999621       0.00187955       0.00744073       0.00078924
C        0.94235557      17.98233202      17.58302860       0.00043795       0.00032170      -0.00099283
C        0.41007144      18.27633870      16.28502461       0.00084013       0.00151053      -0.00021723
C        1.43148375      16.71221076      17.86843768       0.00205249       0.00128034       0.00265346
C        0.48221627      17.26864300      15.29791586      -0.00110147       0.00016948       0.00339240
C        0.93682754      19.01672779      18.64583083      -0.00041141       0.00079837      -0.00079534
C        1.46782563      15.72630558      16.88847840      -0.00009440      -0.00132623       0.00484755
C        0.99901599      16.00933590      15.59889789      -0.00353292       0.00189133       0.00486863
C        1.02006706      14.93525579      14.55815924       0.00182138       0.00137489      -0.00388005
H        1.78822366      16.49658957      18.87372689       0.00156047       0.00102212       0.00291051
H        0.11187761      17.47200025      14.29194017       0.00204951      -0.00192672       0.00261632
O        0.96487543      20.25192727      18.30287879       0.00019506       0.00069162       0.00023517
O        0.95926467      18.58514784      19.84701824       0.00025190       0.00081211      -0.00096482
H        1.85131121      14.73331564      17.11203875       0.00276732      -0.00140340       0.00217598
O        1.06964845      13.73570820      14.99018358      -0.00256969       0.00459389      -0.00595602
O        0.95123946      15.30701867      13.33456553       0.00672253      -0.01655631      -0.01122959
N       -0.18043931      19.46714806      16.03917379      -0.00028215       0.00000955      -0.00165305
H       -0.05540333      20.23612187      16.69866824       0.00001920      -0.00112542      -0.00124359
H       -0.58807483      19.66676054      15.13493767      -0.00058681       0.00011977      -0.00089403
C        1.19833217       5.49920434      17.89017368       0.00166637      -0.00381155       0.00500717
C        1.42277893       6.87658521      18.23157874      -0.00286346      -0.00059134       0.00292522
C        0.96260021       5.15047119      16.56323584      -0.00164819      -0.00123908       0.00252140
C        1.34485117       7.84149127      17.20251786      -0.00374068      -0.00102367      -0.00164865
C        1.20258174       4.44052499      18.93246892       0.00165535      -0.00263463       0.00331541
C        0.90814151       6.11589670      15.56265059      -0.00146451       0.00499681       0.00289541
C        1.09786657       7.46855852      15.88425131       0.00791883       0.00639092      -0.00798251
C        1.08619159       8.51276166      14.81186385       0.00349366      -0.00685340      -0.00158280
H        0.81483623       4.10231819      16.31299063       0.00247366      -0.00614513      -0.00145179
H        1.48858747       8.89622570      17.44008351       0.00002928      -0.00373429       0.00676741
O        1.20108201       4.77258013      20.17178364       0.00025860       0.00157480       0.00223571
O        1.15341682       3.23676885      18.50409663       0.00054217      -0.00074028      -0.00241421
H        0.72247643       5.83483146      14.52871358       0.00129379       0.00316876       0.00234486
O        1.09321489       8.08189515      13.60863342       0.04559977       0.00682344       0.00443594
O        1.11376152       9.73309732      15.18604358       0.00001861       0.00062651       0.00131461
N        1.71882916       7.24105423      19.49461618       0.00326727       0.00118726       0.00469022
H        1.88361095       8.21133246      19.72658189       0.00025121       0.00345683      -0.00035322
H        1.67569900       6.54100270      20.23763481       0.00082782      -0.00066666       0.00702000
C        0.95291740      17.64743054       5.11163572      -0.00114656      -0.00146456       0.00086584
C        1.30763105      16.29537483       4.79179278       0.00196301      -0.00061584      -0.00108989
C        0.57990718      17.97418035       6.41185047       0.00013831       0.00135297       0.00020258
C        1.21141340      15.32090930       5.81014557       0.00106130      -0.00099334      -0.00364411
C        0.99482940      18.70981092       4.07478621      -0.00110174      -0.00150420       0.00181709
C        0.50905755      17.00227185       7.40452351      -0.00289621       0.00584067       0.00225163
C        0.82316816      15.66970974       7.10335525      -0.00923105       0.00728634      -0.00935857
C        0.79044392      14.63487970       8.18022612       0.00475055       0.00289052      -0.00123723
H        0.34291903      19.00995763       6.64632200      -0.00274140      -0.00222256       0.00213695
H        1.47171864      14.28525344       5.58661466       0.00081746      -0.00453901       0.00366171
O        1.01070145      18.37377543       2.83717210      -0.00002994      -0.00214250       0.00155548
O        0.95784363      19.91306767       4.50269946      -0.00075971      -0.00161928       0.00144664
H        0.21867484      17.26584601       8.41871094      -0.00214356       0.00048942       0.00566021
O        0.77059380      15.06262285       9.38164284      -0.00068784      -0.00568570      -0.00310877
O        0.82961332      13.40369279       7.81054382       0.00401733       0.00388627       0.00428748
N        1.75636289      15.96884430       3.56149307       0.00035775      -0.00227033       0.00094858
H        2.02098808      15.01736643       3.34468738       0.00078691      -0.00278020       0.00441111
H        1.70460597      16.65785721       2.80875160      -0.00152480       0.00186649       0.00597074
C        7.31377555      11.84197173      17.71193441      -0.00204226       0.00016235      -0.00233951
C        7.66502214      12.22596493      16.37219555      -0.00147046       0.00161309       0.00076229
C        5.97168538      11.67317479      18.03869908       0.00056192      -0.00199279      -0.00216144
C        6.64285537      12.26690631      15.39506127       0.00458036       0.00156107       0.00070038
C        8.36080128      11.62102865      18.74905975      -0.00228414      -0.00001271      -0.00104594
C        4.97427673      11.77430336      17.07066907      -0.00230722      -0.00370554       0.00551414
C        5.31407002      12.01886088      15.73060968       0.01016573      -0.00037652       0.00921804
C        4.26486841      11.94741452      14.66029412       0.00355210      -0.00142890       0.00247261
H        5.70766340      11.43100110      19.06636720      -0.00068931      -0.00203656      -0.00779293
H        6.89960169      12.48979952      14.35878083       0.00004560       0.00331261      -0.00052760
O        7.94837295      11.51247531      19.95423104       0.00048762      -0.00070622      -0.00004116
O        9.58324659      11.50940265      18.38100425      -0.00212119      -0.00092199       0.00197514
H        3.92935167      11.63379128      17.33782819      -0.00492564      -0.00334605      -0.00124274
O        4.66126276      11.90700013      13.44492548      -0.01369224      -0.00539211      -0.00420929
O        3.05453163      11.87442965      15.06677408       0.00726832      -0.00229334      -0.00210615
N        8.93282827      12.56208330      16.05770290      -0.00561092       0.00243955       0.00222835
H        9.68179344      12.39643944      16.73153858      -0.00640087       0.00444886      -0.00164975
H        9.17122899      12.85912410      15.12055030      -0.00006527       0.00452178       0.00705136
C       17.61701761      11.85063941       7.41492735      -0.00308753       0.00945880      -0.00703426
C       17.93984998      12.42121130       6.13586940      -0.00356058       0.00229221      -0.00395461
C       16.29693242      11.52317703       7.70546630       0.00000211      -0.00014049      -0.00337904
C       16.93255852      12.44062371       5.14407904      -0.00241282      -0.00401418       0.00205234
C       18.68347684      11.60123406       8.42059398       0.00861277      -0.00434570      -0.01070615
C       15.30427640      11.61571216       6.73164672       0.00288887      -0.00183089      -0.00336540
C       15.63798660      12.01189820       5.42676387      -0.00116749       0.00383305      -0.00010173
C       14.62450343      11.91678737       4.32609776      -0.00387321       0.00215011      -0.00353694
H       16.05338453      11.15753252       8.70187591      -0.00440275      -0.00101244      -0.00439437
H       17.17582282      12.78866181       4.13902340      -0.00878655      -0.00207266       0.00637008
O       18.30905150      11.42956857       9.63141479       0.01994078       0.01634486      -0.01751277
O       19.89211231      11.52619222       8.00635349       0.01790150      -0.00621040       0.00263250
H       14.27563682      11.34697125       6.96380539       0.00431954       0.00349877      -0.00892690
O       15.05941637      11.88153740       3.12614900      -0.00464367      -0.00120137      -0.00442897
O       13.39903194      11.82341125       4.69088020      -0.00428065      -0.00093715      -0.00516861
N       19.15847932      12.94820056       5.89534700      -0.00801186       0.00195505      -0.00182942
H       19.93138221      12.78040867       6.54052474      -0.01498631      -0.00173848      -0.00068806
H       19.35948639      13.39843868       5.01169646       0.00146834       0.00452317       0.00133734
C       15.85386210      11.17370839      17.83309723      -0.00275204      -0.00019394       0.00890638
C       17.23883757      11.00393364      18.17737528       0.00053956       0.00647430       0.00002797
C       15.48854997      11.26259951      16.49296683       0.00273446       0.00991342       0.00330787
C       18.19757663      11.06613153      17.14113363       0.00137768      -0.00217432      -0.01476006
C       14.81039084      11.30320959      18.88429484      -0.00529270      -0.00205571       0.00302022
C       16.44920082      11.30100126      15.48640116       0.00724109      -0.00635190      -0.00773348
C       17.81237703      11.25587264      15.81637223       0.02062523      -0.00771107      -0.02152923
C       18.85612875      11.45377250      14.76034293       0.02384235      -0.02267050       0.02461119
H       14.43308305      11.32687551      16.23802110      -0.00841396      -0.00400114       0.00207684
H       19.25750392      10.98279175      17.38370131       0.00150404       0.00463518      -0.00438918
O       13.60238023      11.35961035      18.47435335      -0.00188780      -0.00222756      -0.00404693
O       15.17090545      11.40863067      20.11121435       0.00606647      -0.00171164       0.00031298
H       16.15699027      11.38914586      14.44307019      -0.00474316       0.00638446      -0.00973101
O       20.06864223      11.55334458      15.14682478       0.00884718       0.02307553       0.00769068
O       18.43611408      11.54853042      13.55506289      -0.04199674      -0.05664839      -0.00647594
N       17.62070088      10.78847518      19.45189482      -0.00120463      -0.00501204       0.00419262
H       18.59586958      10.65060444      19.68044777       0.00593032      -0.00485351       0.00261312
H       16.93249846      10.87013777      20.20212180      -0.01128702      -0.00285331      -0.00068005
C        5.25094955      11.38627946       7.22949488       0.00279865      -0.00326960      -0.00135342
C        4.92401063      11.07519017       5.86536554      -0.00073097      -0.00468740      -0.00438079
C        6.57266634      11.66135381       7.56852134       0.00215507      -0.00338431      -0.00017334
C        5.95464835      11.12334260       4.90009271       0.00022491      -0.00256536      -0.00392744
C        4.19545018      11.44794260       8.27626260      -0.00282028       0.00713830       0.00972227
C        7.57509293      11.69031898       6.60226961       0.00404234      -0.00332523      -0.00028799
C        7.26169911      11.44005267       5.25685397       0.00038094      -0.00281948       0.00048073
C        8.30902073      11.54461521       4.19316230      -0.00228623      -0.00084581       0.00260342
H        6.81591143      11.86758269       8.60885553      -0.00293773      -0.00399274       0.00304314
H        5.72111912      10.92257260       3.85410209      -0.00251790      -0.00557212      -0.00327308
O        4.59162926      11.57310070       9.48369196       0.00127994       0.00006025       0.00702352
O        2.96478339      11.42948649       7.91040470       0.00504441       0.00131416      -0.00221235