504
Lattice="20.986242686032774 0.0 0.0 0.0 20.986242686032774 0.0 0.0 0.0 20.986242686032774" Properties=species:S:1:pos:R:3:forces:R:3 energy=-3715.195458236115 stress="0.00028943627591424036 2.6874465170722024e-05 0.00021319471878809265 2.6874465170722024e-05 -0.0003565363087312378 6.223267480120374e-06 0.00021319471878809265 6.223267480120374e-06 0.00019371567726935834" pbc="T T T"
C        7.28167004       0.86521077       7.23628760      -0.00285688      -0.00113676      -0.00094441
C        6.00897297       0.28045368       7.55498222      -0.00236984      -0.00095115       0.00162419
C        7.55624360       1.23445033       5.92377084      -0.00213761      -0.00140241       0.00132840
C        5.01370866       0.26041845       6.55058975      -0.00043639      -0.00144815       0.00142331
C        8.30867888       1.06765241       8.29444329      -0.00023108       0.00036739      -0.00409808
C        6.57846048       1.14980025       4.93508465      -0.00054768      -0.00190130       0.00242415
C        5.28589430       0.71049026       5.26093995       0.00087677      -0.00191172       0.00225758
C        4.19717346       0.77133417       4.23244472       0.00094603      -0.00183764       0.00174271
H        8.54459300       1.62099645       5.67981267      -0.00276517      -0.00228469       0.00265021
H        4.01597998      -0.11042205       6.78879912       0.00021225      -0.00056946       0.00064892
O        9.51320836       1.22342236       7.89486217       0.00292021      -0.00147779       0.00371418
O        7.92478191       1.12009872       9.51473366      -0.00337223      -0.00046703      -0.00492995
H        6.79966007       1.44911405       3.91279442      -0.00058689      -0.00221771       0.00377818
O        2.98483172       0.75416672       4.63655405      -0.00010866      -0.00173120      -0.00151662
O        4.58813283       0.89163056       3.01772231      -0.00142037      -0.00105472       0.00109335
N        5.78428519      -0.26357800       8.76953724      -0.00214349      -0.00075662       0.00033436
H        4.90491684      -0.71932693       8.97644089      -0.00019327      -0.00083910       0.00242965
H        6.43417730      -0.08898589       9.53704461      -0.00245389      -0.00156810       0.00098210
C       17.87860831       0.77558523      17.62897903      -0.00159065       0.00147973      -0.00519957
C       16.61062419       0.17237280      17.93665876       0.00224745       0.00064006      -0.00064824
C       18.15604171       1.14627808      16.31746043      -0.00041073       0.00089359      -0.00186215
C       15.61727115       0.15741920      16.92957315       0.00089743       0.00101965       0.00499827
C       18.88718523       1.01251851      18.69878268      -0.00486481       0.00035294      -0.00731896
C       17.18124128       1.05986842      15.32421194       0.00656136       0.00412249      -0.00158664
C       15.88612803       0.62419853      15.64449719       0.01176736       0.00227383       0.00684830
C       14.78694281       0.71951224      14.62674438       0.00298307       0.00467262      -0.00841906
H       19.14331286       1.54045526      16.07993923      -0.00658346      -0.00288606      -0.00234652
H       14.62071887      -0.21868127      17.16490229      -0.00441355      -0.00045216      -0.00423052
O       20.09684142       1.19110479      18.32565436      -0.00292565       0.00098212       0.00179877
O       18.47505830       1.07225082      19.91062136       0.00140924       0.00026228      -0.00579074
H       17.40531388       1.36249617      14.30348541      -0.00159329       0.00002025      -0.00473645
O       13.58244390       0.72075484      15.05283669       0.00482203      -0.00235259       0.02219773
O       15.15637368       0.84999808      13.40609683       0.00566861      -0.00817631       0.01516698
N       16.38475953      -0.39054400      19.14265599       0.00081423       0.00391186      -0.00633648
H       15.51197775      -0.86541789      19.33475545       0.00400366       0.00359506      -0.00282055
H       17.02468976      -0.22444015      19.91967926      -0.00631740      -0.00008300      -0.00868655
C       17.76706677       1.34733398       5.26648616       0.00123347       0.00065911      -0.00248681
C       16.44939526       1.83125214       4.95902712      -0.00002724       0.00094221       0.00320037
C       18.08309716       1.00823612       6.57793397      -0.00256923      -0.00269155       0.00062848
C       15.47151748       1.79675191       5.97947165      -0.00041326      -0.00151158       0.00492511
C       18.79208111       1.19433105       4.20049340       0.00058250       0.00133963      -0.00143190
C       17.11352610       1.02307265       7.57735019      -0.00068653      -0.00297828       0.00440471
C       15.78975293       1.37061603       7.26712587      -0.00163324       0.00322541       0.00705508
C       14.71299331       1.23987447       8.30144063       0.00179078       0.00911818       0.01690350
H       19.10239344       0.70841281       6.81376373      -0.00025738       0.00138411      -0.00167492
H       14.44848183       2.09982367       5.75330580      -0.00256174      -0.00323020       0.00403091
O       19.99688273       1.01905491       4.58992052      -0.00005785       0.00227337       0.00176808
O       18.40888889       1.18966668       2.97640122      -0.00340202       0.00209924      -0.00066069
H       17.36573040       0.73775325       8.59605352       0.00054796      -0.00739644       0.00409619
O       13.50219185       1.25468735       7.89636337      -0.00017789       0.00385143      -0.01052858
O       15.10386925       1.07620171       9.51127047       0.01428611       0.02848066      -0.00340554
N       16.15924811       2.32924018       3.73882596       0.00048618      -0.00126822       0.00361149
H       16.81883634       2.20402120       2.96988328      -0.00135053       0.00193717       0.00549346
H       15.24020912       2.70178560       3.53963672       0.00015439       0.00199131       0.00100909
C        7.39193337       1.43268190      15.89225121       0.00494591      -0.00384411      -0.00592034
C        6.09985788       1.98930224      15.59951417       0.00553503      -0.00257851      -0.00083020
C        7.69173583       1.04587765      17.19433745       0.00019650      -0.00138935      -0.00517038
C        5.11864833       1.96668208      16.61611921       0.00182224       0.00025632      -0.00034564
C        8.39836072       1.24683882      14.81156009       0.00222455       0.01090727       0.00346914
C        6.72070480       1.07434375      18.19367507       0.00327720      -0.00129111      -0.00200616
C        5.41406011       1.48435989      17.88840078       0.00119522       0.00054751       0.00136770
C        4.31930710       1.35053162      18.90190518      -0.00095098       0.00038100       0.00199904
H        8.69402054       0.68344909      17.41785600      -0.00294033      -0.00001715       0.00071035
H        4.10940710       2.31715670      16.39649483      -0.00086920       0.00294395       0.00186510
O        9.61015643       1.06269664      15.17827983       0.00213401       0.00217611      -0.00148860
O        7.98834987       1.22954727      13.59879146      -0.00047861       0.00623434       0.00432691
H        6.95450470       0.74051623      19.20255150      -0.00072347      -0.00089344       0.00168045
O        3.11757915       1.35427942      18.47027290      -0.00063197       0.00020941       0.00004493
O        4.68639748       1.19429547      20.12070387       0.00042227      -0.00025496       0.00189120
N        5.83390374       2.53496581      14.39450706       0.00130326       0.00102899       0.00348116
H        6.47791550       2.38736150      13.61679524       0.00177146       0.00026157       0.00350972
H        4.93787393       2.96707507      14.20938946       0.00400519       0.00247309       0.00122857
C        5.31659895       5.31111022       1.08068372       0.00102695       0.00094568      -0.00077824
C        6.67619811       4.97007004       0.76433240       0.00037142       0.00069391      -0.00176507
C        4.99356224       6.62977045       1.38768653       0.00017698       0.00034351      -0.00053102
C        7.65669527       5.98267930       0.85294115       0.00000377       0.00034015      -0.00102747
C        4.25612748       4.26949785       1.09371884       0.00087681       0.00061905       0.00015469
C        5.97058657       7.62162703       1.42336067      -0.00025816       0.00009893       0.00053045
C        7.31039295       7.29427419       1.16382928      -0.00049774      -0.00048809       0.00083163
C        8.37085650       8.34847797       1.17123177      -0.00015319      -0.00025072       0.00306173
H        3.95757856       6.87885860       1.60949386       0.00036582       0.00015364      -0.00090748
H        8.70191509       5.73648445       0.66139934      -0.00017892       0.00087918      -0.00159201
O        4.61482444       3.03918001       1.08479783      -0.00005220       0.00047412       0.00038806
O        3.04538716       4.67417650       1.16479764       0.00058749      -0.00041331       0.00117975
H        5.70944581       8.65274410       1.65090408       0.00012944      -0.00026146       0.00113832
O        7.96413335       9.56002909       1.10703938       0.00070144      -0.00015209       0.00424356
O        9.58763373       7.95818039       1.19376932       0.00025487       0.00034135       0.00348543
N        7.01569129       3.72729572       0.36198238      -0.00010005       0.00122729      -0.00308133
H        6.32408473       2.97727323       0.41162436       0.00013393       0.00105367      -0.00296873
H        7.97625491       3.50204337       0.14001199      -0.00078311       0.00124202      -0.00381176
C       15.73234855      15.87803816       1.00484443      -0.00020606       0.00009587      -0.00005113
C       15.42591039      17.20223953       1.46034709      -0.00038022       0.00041995      -0.00053391
C       17.01210237      15.57832775       0.54964870      -0.00000086       0.00052356       0.00016737
C       16.42533536      18.19282151       1.34159794      -0.00044736       0.00064396      -0.00064577
C       14.69080650      14.81934011       1.02861870      -0.00001775      -0.00019569      -0.00054318
C       17.99132132      16.56358437       0.46727470      -0.00020878       0.00087181      -0.00008196
C       17.69150204      17.87840295       0.85051021      -0.00024909       0.00101910      -0.00056941
C       18.74378698      18.93619688       0.78216312      -0.00045708       0.00111568      -0.00063442
H       17.23806098      14.55583509       0.25268521       0.00031702       0.00048663       0.00050185
H       16.20895976      19.21373722       1.65989570      -0.00084095       0.00065949      -0.00092167
O       13.46146934      15.18247323       1.00675075      -0.00005873       0.00007879      -0.00111375
O       15.10138044      13.60999570       1.01151893       0.00020112      -0.00026208      -0.00001235
H       18.99077260      16.32613933       0.10991532      -0.00016268       0.00093450       0.00003057
O       19.95507268      18.53846338       0.72592294      -0.00050869       0.00022438      -0.00093890
O       18.34856728      20.15902620       0.82973756      -0.00092557       0.00116385      -0.00076699
N       14.23157411      17.48428271       2.02387535      -0.00064955       0.00034661      -0.00089217
H       13.46345513      16.81596569       1.94718025      -0.00055405       0.00027501      -0.00067490
H       14.03757115      18.41139435       2.37846042      -0.00088662       0.00052042      -0.00120327
C        7.17991174      15.75756579       0.75011798       0.00157503       0.00074689      -0.00251965
C        5.82392623      15.42828268       0.41343239       0.00147887       0.00077023      -0.00336347
C        7.50694290      17.06409087       1.10065193       0.00008467       0.00091105      -0.00117853
C        4.84683804      16.44241263       0.51772032       0.00050854       0.00044578      -0.00287764
C        8.23989368      14.71706602       0.73715782       0.00155915       0.00088851      -0.00194910
C        6.52943758      18.05126061       1.18376468      -0.00092919       0.00025793      -0.00046129
C        5.19157986      17.73614538       0.90376593      -0.00087065       0.00059925      -0.00143823
C        4.13726498      18.79379230       0.97771594      -0.00084994      -0.00006163      -0.00098506
H        8.54615106      17.30569318       1.31482949       0.00003576       0.00130320      -0.00052306
H        3.80655394      16.21135903       0.28482276       0.00063704      -0.00027797      -0.00365301
O        7.88307656      13.48395315       0.77546244       0.00086998       0.00093030      -0.00245770
O        9.44750736      15.12702802       0.75145311       0.00129100       0.00202322      -0.00082430
H        6.79052907      19.06912201       1.46426465      -0.00135686       0.00000628       0.00099293
O        4.54713886      20.00054930       1.04879572      -0.00012616      -0.00019053      -0.00025074
O        2.91645183      18.40803315       0.92009945      -0.00054430      -0.00145557      -0.00111898
N        5.49420843      14.19198899      -0.01888691       0.00199363       0.00060788      -0.00451469
H        4.53962145      13.97027152      -0.26934345       0.00186712       0.00021283      -0.00457806
H        6.17597997      13.43663943       0.06902111       0.00276579       0.00079669      -0.00462078
C       15.85696482       7.39872628       1.03423942      -0.00031958       0.00032161       0.00054017
C       15.56093921       6.11269059       0.47177163      -0.00001363       0.00076078      -0.00014806
C       17.13236581       7.66573424       1.51986494      -0.00019619       0.00024396       0.00067140
C       16.55292963       5.11072347       0.55285796      -0.00012919       0.00058527      -0.00065758
C       14.80233521       8.44433992       1.09445622      -0.00000895      -0.00020856       0.00082427
C       18.10962644       6.67372349       1.55118266       0.00002981       0.00032454       0.00031124
C       17.80941967       5.38418896       1.08975001      -0.00001026       0.00028692      -0.00004587
C       18.84173918       4.30291126       1.13922564       0.00058592       0.00028489       0.00033113
H       17.35355134       8.66496954       1.89143695       0.00004689      -0.00004353       0.00110187
H       16.33557262       4.11110726       0.17358974       0.00042653       0.00036465      -0.00107586
O       13.58243402       8.05127959       1.11520651      -0.00041624      -0.00011037       0.00134911
O       15.18653581       9.66005868       1.17477089      -0.00023552      -0.00047919       0.00101309
H       19.10535080       6.88349465       1.93585129       0.00033781       0.00003365       0.00047591
O       20.06197237       4.67075521       1.22233835       0.00070237       0.00076347       0.00102123
O       18.41783274       3.09317676       1.05459451      -0.00055146       0.00064325      -0.00042185
N       14.38781452       5.87481345      -0.15358851       0.00013992       0.00097316      -0.00036217
H       14.21237409       4.97948613      -0.59066991       0.00039750       0.00125683      -0.00144971
H       13.60994471       6.52823633      -0.05986093       0.00051673       0.00044980      -0.00029529
C        0.96169476       5.19040953       5.42882891       0.00056244      -0.00401557      -0.00238013
C        0.97203744       4.84862297       6.82458382       0.00144177      -0.00360172       0.00145851
C        1.00014880       6.52967114       5.05319949       0.00003092       0.00083388      -0.00370468
C        1.05126022       5.89570032       7.77033006      -0.00017088       0.00647930      -0.00120539
C        0.94902674       4.14179528       4.37574049       0.00133739      -0.00299111      -0.00142812
C        1.06235952       7.54558219       6.00216205      -0.00254660       0.00241641       0.00617187
C        1.09406551       7.22855763       7.36912982       0.00220520       0.01245525       0.01505300
C        1.13070659       8.30687756       8.40657873      -0.00074298       0.00830284       0.01610888
H        0.98345923       6.77839600       3.99465951      -0.00203345       0.00216247      -0.01186061
H        1.07302892       5.65706593       8.83437858       0.00204224       0.00275652      -0.00269459
O        0.94820370       2.90323833       4.71361944       0.00248990      -0.00121834       0.00581677
O        0.98444611       4.56274892       3.16971328       0.00044357       0.00415802       0.00041125
H        1.07592301       8.58808945       5.69452980      -0.00045955       0.00377243       0.00032631
O        1.05583348       9.51479257       7.97694687       0.00826111       0.00127232      -0.02361882
O        1.18675337       7.94155907       9.62712798      -0.00290454      -0.00361478       0.00987284
N        0.90808964       3.56523802       7.22871701       0.00028509      -0.00392838       0.00390744
H        0.87562429       2.82315957       6.52647689       0.00149004      -0.00188405      -0.00009025
H        0.91342866       3.33084776       8.21204267      -0.00018588       0.00521920       0.00963740
C        0.94148288      17.98148515      17.58432604      -0.00026032       0.00133503      -0.00003117
C        0.40974770      18.27721953      16.28647908      -0.00017131       0.00100684      -0.00033769
C        1.42977075      16.71073596      17.86862162       0.00040509       0.00134757       0.00025930
C        0.48137886      17.27034856      15.29857776       0.00039654      -0.00006122      -0.00043091
C        0.93667048      19.01516054      18.64784414      -0.00018567       0.00075441      -0.00065050
C        1.46534554      15.72565401      16.88766583       0.00127779       0.00007756       0.00024382
C        0.99716601      16.01051390      15.59790690       0.00001017      -0.00128047      -0.00065528
C        1.01702364      14.93773391      14.55517845       0.00280036      -0.00761377      -0.00021975
H        1.78633910      16.49427871      18.87388139       0.00070950       0.00013673       0.00007702
H        0.11192711      17.47487249      14.29262943      -0.00043955      -0.00042725      -0.00108210
O        0.96420384      20.25050282      18.30524419      -0.00019448       0.00067499      -0.00145002
O        0.96020344      18.58342738      19.84892424      -0.00043458      -0.00026107      -0.00075569
H        1.84867769      14.73240761      17.11055703       0.00068722      -0.00099221      -0.00004304
O        1.06479619      13.73817168      14.98748183       0.00025721      -0.00314324       0.00103836
O        0.94913557      15.30727444      13.33100262      -0.00344049       0.00329015      -0.00028726
N       -0.17983160      19.46856218      16.04102905      -0.00052168       0.00022005      -0.00056648
H       -0.05540232      20.23677709      16.70146588       0.00023524      -0.00041639      -0.00049289
H       -0.58665317      19.66931156      15.13668490      -0.00055100      -0.00154497      -0.00124155
C        1.19669981       5.49659462      17.89033936      -0.00143863       0.00327777       0.00108858
C        1.42189463       6.87333675      18.23422988      -0.00215528       0.00406402      -0.00281821
C        0.95875235       5.14999412      16.56298503       0.00027325       0.00416440       0.00131125
C        1.34488920       7.84002617      17.20678498      -0.00035217       0.00061487      -0.00345603
C        1.19996057       4.43718941      18.93121399       0.00068042      -0.00110951       0.00275916
C        0.90240088       6.11790177      15.56472269       0.00435686       0.00283664       0.00188475
C        1.09520531       7.46982535      15.88854792       0.00936079      -0.00169330      -0.00248916
C        1.08719581       8.51590955      14.81837295       0.00002643      -0.01095493       0.00652063
H        0.81148499       4.10201082      16.31043832       0.00172124       0.00327812       0.00286551
H        1.49333088       8.89395801      17.44536713      -0.00485633      -0.00497391       0.00795357
O        1.19854048       4.76932771      20.17054940       0.00095582      -0.00397706       0.00349603
O        1.14936122       3.23377134      18.50219416       0.00133404      -0.00156052       0.00342273
H        0.71558163       5.83926637      14.53024996       0.00004663       0.00234882       0.00577217
O        1.11023178       8.08492965      13.61489362      -0.00631550       0.00722649      -0.00482824
O        1.10326567       9.73602662      15.19342964       0.00428834      -0.00602701      -0.02138311
N        1.71889398       7.23754392      19.49724650       0.00048815      -0.00053955       0.00043294
H        1.88187532       8.20854331      19.72807923       0.00111370      -0.00443162       0.00512610
H        1.67397026       6.53786755      20.24046417       0.00281018       0.00133396       0.00692825
C        0.95649337      17.64704506       5.11178785      -0.00077371      -0.00009459       0.00073184
C        1.30926024      16.29505493       4.78861234      -0.00032756       0.00116338       0.00012779
C        0.58567799      17.97191967       6.41317560      -0.00145955      -0.00056350      -0.00065514
C        1.21380545      15.31875099       5.80518436       0.00085677      -0.00061072      -0.00218421
C        0.99703090      18.71091591       4.07640029      -0.00087303      -0.00158692       0.00073275
C        0.51533478      16.99805620       7.40399608      -0.00164021       0.00283952       0.00068041
C        0.82826168      15.66578721       7.09948902      -0.00238877       0.00461805      -0.00304727
C        0.80089779      14.62955834       8.17522748      -0.00615297       0.00270248       0.00172634
H        0.34944340      19.00734359       6.65025474      -0.00103865      -0.00344675      -0.00059790
H        1.47283229      14.28313815       5.57982159       0.00128798      -0.00321646       0.00247042
O        1.01156761      18.37563573       2.83847812      -0.00039276      -0.00184184       0.00068514
O        0.96036608      19.91397053       4.50484746      -0.00110216      -0.00126539      -0.00060669
H        0.22687444      17.25962614       8.41934568      -0.00185252       0.00047068       0.00183355
O        0.77604615      15.05720190       9.37678905      -0.00409301       0.00140395       0.00458323
O        0.84785973      13.39863482       7.80674990      -0.01195498       0.00735548      -0.00732878
N        1.75489599      15.96997231       3.55682107       0.00004282      -0.00085810       0.00318164
H        2.01711441      15.01825318       3.33787543       0.00099382       0.00062629       0.00253279
H        1.70235616      16.66123624       2.80605088       0.00031864      -0.00353313       0.00384662
C        7.31530939      11.84502787      17.70750477      -0.00071319      -0.00101041       0.00149982
C        7.66514954      12.22098486      16.36521028       0.00131246       0.00115764       0.00370084
C        5.97336389      11.68148348      18.03743863       0.00032852      -0.00246323       0.00150065
C        6.64131265      12.26146343      15.39019268       0.00329112       0.00147221       0.00161771
C        8.36308299      11.62528303      18.74439107      -0.00229651      -0.00131700       0.00052599
C        4.97399885      11.78120680      17.07153938       0.00120005      -0.00251311       0.00191811
C        5.31275207      12.01895833      15.73003773       0.00242093      -0.00247461       0.00238911
C        4.26185702      11.94580230      14.66186356      -0.00446593       0.00343401      -0.00093548
H        5.71083246      11.44464892      19.06647462      -0.00222765      -0.00307815      -0.00077372
H        6.89629562      12.47905384      14.35233167       0.00049467       0.00322772       0.00021613
O        7.95096228      11.51745171      19.94969504      -0.00079109      -0.00222944       0.00096791
O        9.58559843      11.51358656      18.37634887      -0.00227878      -0.00177522       0.00181651
H        3.92902266      11.64503061      17.34116835      -0.00022643      -0.00292695      -0.00196786
O        4.65611135      11.90267182      13.44589365       0.00137299       0.00336761       0.00379712
O        3.05229737      11.87538687      15.07077222      -0.00881394       0.00161295      -0.00628660
N        8.93364945      12.54950151      16.04619924      -0.00092531       0.00324848       0.00356083
H        9.68254130      12.38396517      16.71999882      -0.00163444       0.00361231       0.00139698
H        9.17185519      12.84003087      15.10702340      -0.00069794       0.00463427       0.00508199
C       17.62482591      11.85870420       7.40382822      -0.00949250      -0.00326735      -0.00888179
C       17.94232620      12.42530688       6.12189133      -0.00109971       0.00032607      -0.00886073
C       16.30522654      11.53063307       7.69635863      -0.00788563      -0.00367034      -0.00146180
C       16.93198036      12.44449497       5.13302091      -0.00245460       0.00055550      -0.00110654
C       18.69334163      11.60866871       8.40901053      -0.00434016      -0.00500523       0.00322406
C       15.30990534      11.62068611       6.72475800      -0.00406382      -0.00040476      -0.00220929
C       15.63823720      12.01603159       5.41877814       0.00078617      -0.00090678       0.00258493
C       14.62215399      11.91631120       4.32050542       0.00416689       0.00029439       0.00472432
H       16.06240381      11.16549540       8.69293262       0.00032713      -0.00069627       0.00302011
H       17.17056369      12.79211597       4.12689217       0.00352851       0.00001854       0.00327866
O       18.31841249      11.43946459       9.61957492      -0.00388421       0.01777328      -0.00190811
O       19.90265632      11.52954574       7.99612330      -0.00627919       0.00775819      -0.02016198
H       14.28184060      11.35158093       6.95823810       0.00113449      -0.00062096       0.00269918
O       15.05605167      11.87946729       3.12016756      -0.00020471       0.00039765       0.00366820
O       13.39742106      11.81990321       4.68660386       0.00340922       0.00083521      -0.00028252
N       19.16143074      12.94819045       5.87561976       0.00158931      -0.00037358       0.00857728
H       19.93506391      12.77671091       6.51829543       0.00001361      -0.00017399       0.00462851
H       19.36181350      13.39558436       4.99040924       0.00224050       0.00326209       0.00062017
C       15.85655888      11.17942632      17.83309567      -0.00092374      -0.00123137       0.00091366
C       17.24189582      11.01109602      18.17719783       0.00087252      -0.00074025      -0.00483527
C       15.49055163      11.26484472      16.49287567       0.00238793      -0.00101286      -0.00167081
C       18.19972033      11.06875291      17.13953830       0.00134168       0.00265109      -0.00090578
C       14.81256355      11.30827985      18.88387385      -0.00292421      -0.00104401       0.00325175
C       16.45011531      11.29750186      15.48473029       0.00383122       0.00383943      -0.00080047
C       17.81386541      11.25223862      15.81423536      -0.00011721      -0.00473924       0.00497265
C       18.85648421      11.45018815      14.75908961      -0.00565520      -0.01143078       0.02206648
H       14.43447605      11.32763038      16.23920121      -0.00035813      -0.00064791      -0.00001618
H       19.26023180      10.98890310      17.38094101      -0.00193665       0.00047662       0.00115405
O       13.60468048      11.36512005      18.47378792      -0.00177853      -0.00248405      -0.00258730
O       15.17277513      11.41217207      20.11107334       0.00112279      -0.00125899       0.00273439
H       16.15628724      11.38498266      14.44150848      -0.00005939      -0.00100207      -0.00020454
O       20.06821501      11.56343192      15.14448380      -0.00737429       0.00261059      -0.00827461
O       18.43174288      11.53352908      13.55454057       0.01045291      -0.02110023       0.00076657
N       17.62378215      10.79880575      19.45227293      -0.00222000      -0.00222355      -0.00251636
H       18.59913088      10.66213355      19.68148721      -0.00179412      -0.00360465       0.00247351
H       16.93369330      10.88005034      20.20115687      -0.00160305      -0.00340249       0.00061019
C        5.25419971      11.39376614       7.23471095      -0.00543737      -0.00127238       0.00066194
C        4.92303658      11.08920957       5.86965715      -0.00084357      -0.00295757       0.00064675
C        6.57528199      11.67705359       7.56980486      -0.00447178      -0.00486274       0.00010870
C        5.95198006      11.13739602       4.90258494      -0.00000938      -0.00396496      -0.00044180
C        4.20141199      11.44444389       8.28605234       0.00271353      -0.00104982      -0.00345391
C        7.57543706      11.70924782       6.60105849      -0.00185545      -0.00562011       0.00258159
C        7.26011398      11.45187169       5.25725952       0.00084904      -0.00315896       0.00000901
C        8.30735677      11.54338338       4.19248037       0.00202440       0.00131541      -0.00129935
H        6.81944045      11.88607070       8.60955485      -0.00137840      -0.00634195      -0.00166945
H        5.71579577      10.93681843       3.85709939       0.00205406      -0.00478330      -0.00294784
O        4.59975016      11.56725839       9.49329189      -0.00588994       0.00359056      -0.00607925
O        2.97090471      11.41751288       7.92203909      -0.00151132       0.00496813      -0.00558581