504
Lattice="20.98559239401653 0.0 0.0 0.0 20.98559239401653 0.0 0.0 0.0 20.98559239401653" Properties=species:S:1:pos:R:3:forces:R:3 energy=-3715.194228774973 stress="0.00026213788267905394 2.2602215605017077e-05 0.0002026650650492903 2.2602215605017077e-05 -0.00035228887015125235 1.844976478072758e-05 0.0002026650650492903 1.844976478072758e-05 0.00013920411157466788" pbc="T T T"
C        7.28191967       0.86157843       7.23611675       0.00030140      -0.00271501       0.00188328
C        6.00837103       0.27830545       7.55583821       0.00280071      -0.00153047       0.00002157
C        7.55580050       1.23213189       5.92406511      -0.00090948      -0.00329676       0.00057376
C        5.01323257       0.25837860       6.55149436       0.00092245      -0.00163203       0.00078211
C        8.31087856       1.06351538       8.29253696      -0.00185331       0.00013808       0.00083323
C        6.57823370       1.14721541       4.93538072      -0.00205192      -0.00277350       0.00239432
C        5.28608485       0.70706595       5.26161482      -0.00624653       0.00391959      -0.00050236
C        4.19656564       0.76844031       4.23391018       0.03114297       0.00016332      -0.00377363
H        8.54384359       1.61943997       5.68052433       0.00023883      -0.00132294      -0.00012815
H        4.01489563      -0.11127538       6.78923289       0.00332792      -0.00109019       0.00355236
O        9.51553828       1.21862228       7.89347635      -0.00320925      -0.00019289       0.00039860
O        7.92665250       1.11659982       9.51272466      -0.00166060      -0.00188379       0.00024206
H        6.79938960       1.44706529       3.91326693      -0.00162475      -0.00307867       0.00293980
O        2.98523900       0.75121743       4.63848794      -0.03233816      -0.00267011       0.00704047
O        4.58900233       0.88898544       3.01930158      -0.00831517      -0.00730162       0.00636435
N        5.78235258      -0.26506273       8.77040206       0.00140326      -0.00049746       0.00166723
H        4.90258020      -0.72023926       8.97703560       0.00074193       0.00049498       0.00068988
H        6.43206650      -0.09207640       9.53813499       0.00252341       0.00028202       0.00280848
C       17.87990266       0.77711738      17.62723664       0.00013074       0.00119969      -0.00077925
C       16.61227309       0.17386031      17.93600088       0.00117226       0.00183016      -0.00115972
C       18.15716937       1.14737827      16.31555116       0.00009269       0.00068525      -0.00146094
C       15.61834771       0.15879838      16.93011367       0.00093528       0.00061586      -0.00080515
C       18.88787392       1.01455341      18.69705757       0.00524128       0.00106743      -0.00023293
C       17.18194775       1.06142985      15.32298560      -0.00109040      -0.00037726      -0.00093387
C       15.88740818       0.62555634      15.64567872      -0.00118911      -0.00109223      -0.00146179
C       14.78655069       0.71590763      14.62981725      -0.00286099       0.00032625       0.00036172
H       19.14439078       1.54051507      16.07710494       0.00056545       0.00047171      -0.00097859
H       14.62153093      -0.21759799      17.16451547       0.00170944       0.00104391       0.00137871
O       20.09780747       1.19402823      18.32472590      -0.00061153      -0.00128724      -0.00443245
O       18.47586522       1.07362147      19.90879702      -0.00512105       0.00161753       0.00066567
H       17.40442748       1.36305811      14.30150652      -0.00049823       0.00047001      -0.00034075
O       13.58276832       0.72104596      15.05800185      -0.00199788       0.00119520       0.00366158
O       15.15552298       0.83718697      13.40841958       0.00084932      -0.00107711       0.00272185
N       16.38610369      -0.38923301      19.14142790       0.00172288       0.00113051       0.00038131
H       15.51300715      -0.86357838      19.33286591       0.00097799       0.00083201       0.00040292
H       17.02537587      -0.22265602      19.91853165       0.00018570       0.00013283       0.00046440
C       17.76359774       1.34632563       5.26658178       0.00963424       0.00162362      -0.00583915
C       16.44669835       1.83232614       4.96092704       0.00009637      -0.00034891       0.00232327
C       18.08312330       1.00785401       6.57737992      -0.00221100      -0.00240245      -0.00169201
C       15.47086094       1.79776493       5.98274513      -0.00029802      -0.00174554       0.00397983
C       18.78674625       1.19085017       4.19949186      -0.02880356       0.00411583      -0.00528921
C       17.11546735       1.02088722       7.57829158      -0.00236571       0.00064493       0.00178570
C       15.79252557       1.37301841       7.26981164      -0.00294671      -0.00052641       0.00690082
C       14.71751014       1.24647631       8.30509568      -0.00470354       0.00573943       0.00681041
H       19.10357308       0.71002125       6.81058259      -0.00346636      -0.00252491       0.00212506
H       14.44676181       2.09834627       5.75833108      -0.00129508       0.00184407       0.00266233
O       19.98868477       1.00578807       4.59018854       0.03240879      -0.00314379      -0.00095841
O       18.40446873       1.19347272       2.97469596       0.00764767      -0.00516813       0.00657428
H       17.36821656       0.73114837       8.59566949      -0.00022891      -0.00200945       0.00295540
O       13.50710779       1.25477432       7.89854448      -0.00222832       0.00462736       0.00100292
O       15.10939232       1.09337049       9.51567513       0.00457124       0.00844369       0.00333821
N       16.15652901       2.33096198       3.74123529       0.00411692      -0.00160735      -0.00070509
H       16.81738733       2.20587818       2.97316400      -0.00607479       0.00361098       0.00143959
H       15.23831525       2.70514749       3.54165589      -0.00261178       0.00224858       0.00309435
C        7.39121001       1.43643958      15.88780336      -0.00025327       0.00286055       0.00272432
C        6.09817487       1.99243535      15.59882923      -0.00006052       0.00160211       0.00126860
C        7.69151074       1.04499314      17.18849706      -0.00035548       0.00004391       0.00142874
C        5.11846553       1.96852828      16.61707083       0.00004740       0.00152701       0.00050260
C        8.39876025       1.26066680      14.80709336      -0.00159821      -0.00275161       0.00204253
C        6.72223764       1.07254104      18.18978029      -0.00070131      -0.00050667       0.00077347
C        5.41504598       1.48406409      17.88831884       0.00026799      -0.00013739      -0.00028641
C        4.32095469       1.35009146      18.90330510      -0.00445113      -0.00017428       0.00180774
H        8.69357847       0.68104598      17.41004760      -0.00084388      -0.00130691       0.00030925
H        4.10922747       2.32040631      16.39932852       0.00048940       0.00132818       0.00239631
O        9.60843981       1.06543227      15.17419012      -0.00171450       0.00370456       0.00337142
O        7.99234148       1.26027524      13.59243561      -0.00454253      -0.01604009       0.00442385
H        6.95779846       0.73788171      19.19802380      -0.00050286      -0.00302865       0.00010209
O        3.11876979       1.35414247      18.47217091       0.00121987       0.00002768      -0.00410147
O        4.68736655       1.19385182      20.12208820       0.01030008       0.00031538       0.00074488
N        5.83022540       2.54017963      14.39516827      -0.00074601      -0.00137558       0.00206909
H        6.47171191       2.38674040      13.61636503       0.00170850       0.00696277       0.00063691
H        4.93388165       2.97223044      14.21159807       0.00100647       0.00144338       0.00075526
C        5.31799059       5.31107939       1.07969608      -0.00229717      -0.00080283      -0.00029896
C        6.67723924       4.97086054       0.76192228      -0.00134921      -0.00046745      -0.00073841
C        4.99420624       6.62949021       1.38710328      -0.00049362      -0.00131516      -0.00022536
C        7.65754304       5.98356308       0.85148987      -0.00084451      -0.00109786      -0.00088903
C        4.25801875       4.26866973       1.09292819       0.00602591       0.00533681       0.00067522
C        5.97097778       7.62154609       1.42411961      -0.00058308      -0.00108682       0.00078601
C        7.31091969       7.29454099       1.16490447       0.00007142      -0.00090548       0.00037095
C        8.37123845       8.34881622       1.17508194      -0.00000848      -0.00020758       0.00189495
H        3.95797021       6.87804262       1.60841980       0.00097388      -0.00019190      -0.00053423
H        8.70274764       5.73795942       0.65919710      -0.00008643       0.00042385      -0.00155422
O        4.61643134       3.03802514       1.08811158       0.00706074       0.00221665      -0.00174172
O        3.04762315       4.67322742       1.16055688      -0.00672899      -0.00077096       0.00380763
H        5.70954459       8.65238556       1.65263070       0.00035263      -0.00056375       0.00110253
O        7.96452332       9.56040112       1.11246118       0.00027526      -0.00019327       0.00262815
O        9.58798599       7.95841626       1.19798355       0.00034959       0.00026747       0.00214660
N        7.01530292       3.72840577       0.35752884       0.00077990       0.00063253      -0.00346739
H        6.32339279       2.97863598       0.40853090       0.00397965       0.00039188      -0.00336335
H        7.97537441       3.50255154       0.13419838       0.00070762       0.00111174      -0.00415204
C       15.73223237      15.87828479       1.00462523       0.00053405       0.00087843      -0.00055094
C       15.42534316      17.20262460       1.45947193      -0.00005317       0.00110341      -0.00073203
C       17.01218745      15.57896031       0.54977985       0.00054939       0.00090510       0.00004864
C       16.42458435      18.19346365       1.34054203      -0.00004356       0.00097015      -0.00074643
C       14.69088181      14.81930565       1.02788289       0.00079596       0.00046991      -0.00112544
C       17.99110297      16.56457574       0.46703168       0.00082706       0.00078883       0.00003150
C       17.69106089      17.87948683       0.84981346      -0.00000129       0.00116937       0.00094267
C       18.74332847      18.93758848       0.78270631       0.00011969       0.00248703       0.00082811
H       17.23841085      14.55633489       0.25339393       0.00107143       0.00126264       0.00031434
H       16.20781796      19.21438251       1.65852807      -0.00104336       0.00113766      -0.00083461
O       13.46158357      15.18239504       1.00508134       0.00074270       0.00039711      -0.00155339
O       15.10148012      13.60996423       1.01116544       0.00075681       0.00042471      -0.00097890
H       18.99064043      16.32723894       0.10988266       0.00059967       0.00102394      -0.00026466
O       19.95506879      18.54080462       0.72830775      -0.00422262      -0.01167556      -0.00167182
O       18.34827197      20.16038248       0.83000217      -0.00781694       0.00226207      -0.00021269
N       14.23074147      17.48464129       2.02253284       0.00002502       0.00037506      -0.00112481
H       13.46272568      16.81618906       1.94614457       0.00007518      -0.00013053      -0.00110248
H       14.03638389      18.41185080       2.37668825      -0.00036130       0.00034764      -0.00130579
C        7.18128586      15.75877814       0.74675234       0.00002903       0.00112694      -0.00220770
C        5.82573792      15.42909809       0.40856242       0.00027867       0.00109306      -0.00337118
C        7.50714949      17.06513334       1.09895302      -0.00083047       0.00132442      -0.00130625
C        4.84781533      16.44250746       0.51340366      -0.00046567       0.00115545      -0.00279442
C        8.24158012      14.71853744       0.73479880       0.00044033       0.00129193      -0.00151531
C        6.52873016      18.05142020       1.18290642      -0.00190596       0.00102243      -0.00066377
C        5.19115485      17.73602837       0.90156493      -0.00246905       0.00154057      -0.00045831
C        4.13607610      18.79306243       0.97802925      -0.00504492       0.00379585       0.00185416
H        8.54611201      17.30717919       1.31399812      -0.00094622       0.00145083      -0.00060853
H        3.80784743      16.21087996       0.27964625       0.00000211       0.00032082      -0.00373059
O        7.88484080      13.48543093       0.77293300       0.00039846       0.00133020      -0.00147962
O        9.44911375      15.12865820       0.75029752       0.00038569       0.00169997      -0.00096635
H        6.78888137      19.06895838       1.46540640      -0.00096122       0.00087788       0.00066138
O        4.54483412      20.00007793       1.05074807       0.01212084       0.00027061       0.00096014
O        2.91493505      18.40819126       0.92159742      -0.00067068      -0.01222840      -0.00102326
N        5.49727497      14.19296961      -0.02536714       0.00142616       0.00148434      -0.00446649
H        4.54294018      13.97066106      -0.27626975       0.00178619       0.00075991      -0.00528543
H        6.17933949      13.43784282       0.06252466       0.00246355       0.00205331      -0.00403562
C       15.85645279       7.39931554       1.03497748      -0.00075659      -0.00092581       0.00004260
C       15.56028499       6.11380285       0.47139458       0.00344857      -0.00197447       0.00082595
C       17.13178853       7.66625058       1.52084023       0.00000857      -0.00148433       0.00066601
C       16.55214394       5.11162941       0.55215913       0.00548413      -0.00062970       0.00059046
C       14.80182671       8.44462157       1.09580700      -0.00050505       0.00022834       0.00049911
C       18.10883128       6.67404558       1.55176791       0.00160541      -0.00104707      -0.00040794
C       17.80856757       5.38479600       1.08965377       0.00683329      -0.00067470      -0.00142891
C       18.84193102       4.30378001       1.13882563      -0.01523435       0.00398075       0.00259711
H       17.35313596       8.66526781       1.89294624      -0.00082657      -0.00035282       0.00087714
H       16.33508008       4.11220635       0.17204886       0.00023795       0.00225545      -0.00007697
O       13.58200069       8.05144227       1.11700600      -0.00061021       0.00056097       0.00089114
O       15.18612223       9.66031241       1.17607202      -0.00053944       0.00034526       0.00037904
H       19.10472337       6.88339490       1.93634514      -0.00136251       0.00051225       0.00060026
O       20.06191448       4.67130160       1.22200823       0.01325131       0.00256067       0.00727412
O       18.41743073       3.09418654       1.05422044       0.00123970       0.00025475      -0.00641163
N       14.38740405       5.87637348      -0.15461481       0.00184172       0.00095963       0.00030838
H       14.21254273       4.98138844      -0.59264671      -0.00092370       0.00184228      -0.00148127
H       13.60927879       6.52936994      -0.06033239      -0.00034436       0.00065069      -0.00068190
C        0.96631860       5.18871544       5.41951577      -0.00032363      -0.02112981      -0.01816430
C        0.97689729       4.84186552       6.81276461      -0.00468509       0.00078582       0.03332228
C        1.01263389       6.52918077       5.04438047      -0.00419583      -0.03250813       0.01459783
C        1.05413955       5.88576835       7.76208622      -0.00139829       0.03473710       0.01526702
C        0.94585101       4.13849633       4.36882782       0.00376729       0.06264758      -0.03316175
C        1.07406026       7.53877037       5.99993312      -0.00128789       0.01726033      -0.02869620
C        1.09488827       7.22135789       7.36611085       0.00179828       0.01399375      -0.02181117
C        1.11667215       8.30728417       8.39669736      -0.00013510      -0.04067550       0.05875351
H        1.00046204       6.78337101       3.98569768       0.00059662      -0.01892492       0.03452567
H        1.07409467       5.63869983       8.82360733      -0.00083584       0.02785351       0.02390434
O        0.91381979       2.89978619       4.70344550       0.04437702       0.02558099      -0.00125256
O        1.00550670       4.56598039       3.16547169      -0.03514907      -0.04746734      -0.01174382
H        1.09443291       8.58170672       5.69709240      -0.00188263       0.03190608      -0.01762232
O        1.07852939       9.51619108       7.96564751      -0.04143174      -0.01761718      -0.02004473
O        1.12417224       7.94435151       9.61934305       0.05693148      -0.02191913       0.01260836
N        0.91705526       3.55651600       7.21510383      -0.00997568       0.01887678       0.01916357
H        0.86677166       2.81457256       6.51335393       0.00173846       0.01454224       0.00669159
H        0.90732756       3.32365568       8.19905258       0.00818998       0.00192130      -0.00292670
C        0.94134858      17.98159454      17.58454753       0.00070232       0.00000243      -0.00035885
C        0.40977560      18.27618907      16.28618673       0.00006687       0.00180356       0.00217780
C        1.43015202      16.71099804      17.86850589       0.00078395       0.00120951       0.00338215
C        0.48153077      17.26896602      15.29839396       0.00005635       0.00276745       0.00260475
C        0.93700685      19.01586257      18.64826266       0.00055333       0.00122914      -0.00514679
C        1.46587727      15.72537195      16.88791617       0.00204551       0.00140973       0.00423399
C        0.99784784      16.00932706      15.59806856       0.00226285       0.00390911       0.00407609
C        1.02030056      14.93627906      14.55577683      -0.00198065      -0.00079054       0.00524922
H        1.78722559      16.49484648      18.87359047       0.00103878      -0.00006478       0.00257408
H        0.11200656      17.47305086      14.29229664       0.00033127      -0.00022856       0.00171306
O        0.96546722      20.25125393      18.30494423       0.00037421      -0.00296575      -0.00207077
O        0.96027884      18.58535708      19.84961138      -0.00033824      -0.00805713      -0.00569139
H        1.84946339      14.73223110      17.11100458       0.00077870       0.00039052       0.00163478
O        1.06898304      13.73697061      14.98845566      -0.00269982      -0.00250588      -0.00873889
O        0.95248462      15.30651609      13.33187956      -0.00276136      -0.00325974      -0.00210675
N       -0.17977743      19.46743767      16.04040441      -0.00061958       0.00040372      -0.00017930
H       -0.05490395      20.23581111      16.70052576      -0.00054716       0.00111728      -0.00117701
H       -0.58703499      19.66782206      15.13616084      -0.00013767      -0.00077945      -0.00077957
C        1.19656691       5.49785292      17.89169950       0.00075143       0.00077220      -0.00102383
C        1.42147021       6.87473492      18.23506194       0.00015910       0.00109765      -0.00187412
C        0.95990812       5.15065591      16.56455489       0.00051791       0.00022576      -0.00329612
C        1.34495737       7.84062786      17.20676730      -0.00011224       0.00121051      -0.00543505
C        1.20077569       4.43854551      18.93214611       0.00001436      -0.01004668       0.00549119
C        0.90587457       6.11747097      15.56524408       0.00282854       0.00300544       0.00048031
C        1.10086198       7.46915974      15.88729001       0.00104521       0.00062865      -0.00389869
C        1.09304077       8.51313991      14.81448500      -0.00104423      -0.00367939      -0.01290068
H        0.81234943       4.10274469      16.31276976       0.00021741      -0.00315038       0.00092573
H        1.48949870       8.89476817      17.44660849      -0.00110719      -0.00214588       0.00059603
O        1.19931570       4.76991034      20.17145405      -0.00183146       0.00608818       0.00742076
O        1.15123856       3.23470306      18.50418875       0.00226983      -0.00326977      -0.00933628
H        0.71803917       5.83833514      14.53115591       0.00329016       0.00027763       0.00231234
O        1.11507825       8.08255841      13.61061594      -0.00157021       0.01741043       0.00202334
O        1.10902519       9.73352356      15.19001860       0.00040995      -0.00555374      -0.01677828
N        1.71883755       7.23817379      19.49823033       0.00078096       0.00109131       0.00249561
H        1.88328788       8.20843289      19.73062276       0.00060477       0.00252111      -0.00048663
H        1.67539901       6.53812881      20.24118714       0.00081676      -0.00090749       0.00472788
C        0.95537298      17.64713318       5.11283853      -0.00100912      -0.00461540       0.00250964
C        1.30868839      16.29514033       4.79043731       0.00045674      -0.00332207       0.00239142
C        0.58343571      17.97260393       6.41352223      -0.00215989       0.00214696       0.00401127
C        1.21294740      15.31937870       5.80738934      -0.00000372       0.00004277       0.00115559
C        0.99622461      18.71085716       4.07828143      -0.00015519      -0.00925817      -0.00661266
C        0.51265521      16.99977181       7.40501653      -0.00126995      -0.00054107       0.00097449
C        0.82596596      15.66759716       7.10103810      -0.00124038       0.00290780      -0.00204235
C        0.79858029      14.63228737       8.17753235      -0.00589763       0.01035162      -0.01060313
H        0.34701191      19.00798636       6.64948466      -0.00349262       0.00345908       0.00284653
H        1.47295094      14.28347925       5.58356744      -0.00058210       0.00379713       0.00080828
O        1.01086659      18.37731785       2.84024237       0.00160459      -0.01668592      -0.00929170
O        0.95950516      19.91375216       4.50685861      -0.00355397       0.00309003       0.01357138
H        0.22396005      17.26170394       8.42026181      -0.00185321       0.00102779      -0.00109158
O        0.77776242      15.06117541       9.37844232      -0.00423989      -0.00872405      -0.00100285
O        0.84195887      13.40147901       7.80717710      -0.00741566       0.01187982       0.00721931
N        1.75551591      15.96943101       3.55938462      -0.00061935       0.00307484      -0.00148193
H        2.01871189      15.01786134       3.34109733       0.00070196      -0.00092629       0.00276948
H        1.70266115      16.65975139       2.80809517       0.00152559       0.00058151      -0.00070017
C        7.31389948      11.84387232      17.71001993      -0.00021684      -0.00075476       0.00103382
C        7.66378740      12.22280578      16.36862782      -0.00051910       0.00129055       0.00266299
C        5.97210943      11.67837237      18.03966636      -0.00087804      -0.00218282      -0.00138386
C        6.64019475      12.26342487      15.39344810       0.00124001       0.00095320       0.00009791
C        8.36176994      11.62333324      18.74628850      -0.00087976      -0.00118379       0.00183390
C        4.97290025      11.77862487      17.07364871       0.00052659      -0.00244632      -0.00278829
C        5.31189525      12.01890039      15.73246084      -0.00004341      -0.00135964      -0.00174245
C        4.26167948      11.94703436      14.66308740      -0.00274672      -0.00380102       0.00237420
H        5.70961539      11.43945391      19.06825569      -0.00187645      -0.00308004      -0.00124660
H        6.89499603      12.48260423      14.35587995       0.00202476       0.00439890       0.00062989
O        7.94991032      11.51481071      19.95166369      -0.00083511      -0.00141284       0.00145839
O        9.58409124      11.51174003      18.37780499      -0.00078913      -0.00130189       0.00171536
H        3.92801167      11.64067711      17.34282600       0.00029056      -0.00244374      -0.00305365
O        4.65639385      11.90682495      13.44707964      -0.00462471      -0.01033236      -0.00187326
O        3.05230937      11.87461859      15.07187705      -0.00628607      -0.00033241      -0.01391971
N        8.93169132      12.55415576      16.05034874      -0.00047788       0.00341935       0.00376498
H        9.68100227      12.38871024      16.72357160      -0.00022183       0.00327142       0.00313551
H        9.16931810      12.84700442      15.11175966      -0.00015091       0.00508950       0.00454701
C       17.62357141      11.85545887       7.39931193      -0.00325520       0.00007631      -0.00437806
C       17.94142470      12.42506471       6.11941113      -0.00042518       0.00143075      -0.00420429
C       16.30418499      11.52859857       7.69449991      -0.00151518      -0.00083550      -0.00269054
C       16.93099698      12.44501670       5.13136236      -0.00063596       0.00058182      -0.00284219
C       18.69320447      11.61037455       8.40372438       0.00398870       0.00321930       0.00374226
C       15.30855170      11.62008182       6.72379419      -0.00150449      -0.00006533      -0.00288978
C       15.63763334      12.01625901       5.41822533      -0.00062090       0.00014401      -0.00164715
C       14.62198087      11.91703968       4.32042274      -0.00035750       0.00058478      -0.00081356
H       16.06220650      11.16430030       8.69171316       0.00179104      -0.00116592      -0.00155137
H       17.16988760      12.79333537       4.12571699      -0.00086061       0.00132268      -0.00176967
O       18.31788826      11.45549967       9.61543996       0.01070587       0.00766059      -0.00005429
O       19.90195180      11.52442391       7.98894351      -0.00567918       0.00420188      -0.00088094
H       14.28055849      11.35142946       6.95787150      -0.00064451      -0.00012099      -0.00048302
O       15.05590485      11.87998279       3.12014206      -0.00026847       0.00055605      -0.00085581
O       13.39732546      11.82114202       4.68667970      -0.00004587       0.00077021      -0.00010701
N       19.16009577      12.95087332       5.87687174      -0.00097266       0.00214964      -0.00134963
H       19.93302525      12.77776556       6.52016122      -0.00060635       0.00077546      -0.00009337
H       19.36224086      13.39987434       4.99289935      -0.00120448       0.00383363      -0.00061653
C       15.85651190      11.17857257      17.83278348      -0.00079566      -0.00072494      -0.00014866
C       17.24166096      11.00988958      18.17747630      -0.00096978      -0.00145292       0.00130648
C       15.49164801      11.26457712      16.49229302      -0.00128956      -0.00042621       0.00053369
C       18.20039237      11.06838775      17.14081558      -0.00122133      -0.00161837       0.00291400
C       14.81185806      11.30645117      18.88327116      -0.00069954      -0.00104347       0.00001014
C       16.45190225      11.29681543      15.48477527      -0.00216709      -0.00170636       0.00096598
C       17.81528410      11.24841280      15.81501873      -0.00389914      -0.00337260       0.00455376
C       18.85864006      11.44078357      14.75983714      -0.00629218      -0.00203438       0.00623509
H       14.43574622      11.32754994      16.23794727      -0.00048855       0.00049976      -0.00041210
H       19.26072726      10.98975928      17.38321026      -0.00057887      -0.00010469       0.00132933
O       13.60405629      11.36226750      18.47282466      -0.00079208      -0.00135709      -0.00017683
O       15.17189070      11.41056282      20.11055936      -0.00065563      -0.00092769      -0.00002719
H       16.15856544      11.38462528      14.44139347       0.00143561      -0.00121440       0.00079118
O       20.06862699      11.56354882      15.14755709      -0.00062572      -0.00072288      -0.01215277
O       18.43479763      11.51096662      13.55415911       0.01397883      -0.00892027       0.00220716
N       17.62225067      10.79521398      19.45249241      -0.00110430      -0.00248110       0.00111500
H       18.59719060      10.65730699      19.68270220      -0.00110062      -0.00320178       0.00089318
H       16.93146317      10.87563044      20.20083394      -0.00087307      -0.00272081       0.00085959
C        5.25119403      11.39149969       7.22876461       0.00532486      -0.00552487       0.00157542
C        4.92240988      11.08409580       5.86381665      -0.00256602      -0.00560456      -0.00096372
C        6.57209368      11.66974633       7.56716355       0.00620995      -0.00528384      -0.00009907
C        5.95324009      11.13182627       4.89873618      -0.00050129      -0.00339440       0.00050524
C        4.19916654      11.44691560       8.27894826      -0.01873916       0.00491624      -0.00255757
C        7.57418931      11.70108041       6.60092199       0.00351831      -0.00464800      -0.00390353
C        7.26057758      11.44730348       5.25609911      -0.00127502      -0.00369514      -0.00168578
C        8.30841608      11.54458397       4.19267331      -0.00067396      -0.00009041      -0.00007102
H        6.81460584      11.87501103       8.60782019       0.00220575      -0.00143246       0.00272438
H        5.71985303      10.93035842       3.85269124      -0.00070726      -0.00321185       0.00149788
O        4.59629111      11.57189748       9.48625979       0.00160901      -0.01238141       0.00240708
O        2.96872935      11.42311807       7.91329704       0.01135905       0.01343462       0.00143269