504
Lattice="20.98446572037696 0.0 0.0 0.0 20.98446572037696 0.0 0.0 0.0 20.98446572037696" Properties=species:S:1:pos:R:3:forces:R:3 energy=-3715.1921965509136 stress="0.00032128527188901796 2.4866109665407796e-05 0.0001956187196143351 2.4866109665407796e-05 -0.0004384239476968267 1.2702913511231312e-05 0.0001956187196143351 1.2702913511231312e-05 0.0001463285313484321" pbc="T T T"
C        7.27582026       0.85588914       7.24565313       0.00007590      -0.00094438       0.00103799
C        6.00276494       0.27195684       7.56498277       0.00033362      -0.00063090       0.00165340
C        7.55094520       1.22298889       5.93287170      -0.00003155      -0.00113713       0.00107660
C        5.00806014       0.25046040       6.56013147      -0.00003371      -0.00115597       0.00178466
C        8.30353103       1.06093550       8.30260445      -0.00005706      -0.00039329       0.00033813
C        6.57393202       1.13656572       4.94391003      -0.00011070      -0.00152747       0.00093675
C        5.28128166       0.69828460       5.26983815      -0.00043234      -0.00150163       0.00116663
C        4.19403019       0.75929220       4.24000774      -0.00096427      -0.00305477      -0.00070560
H        8.53920792       1.60942081       5.68888950      -0.00013523      -0.00112255       0.00065968
H        4.01010767      -0.11974546       6.79823568      -0.00068379      -0.00077396       0.00094882
O        9.50765345       1.21661197       7.90221124      -0.00031001      -0.00110243       0.00072010
O        7.92008820       1.11564137       9.52304864      -0.00041924      -0.00066693       0.00007042
H        6.79603400       1.43409220       3.92142722      -0.00024524      -0.00162897       0.00051901
O        2.98110890       0.74353348       4.64214767      -0.00024411      -0.00443865       0.00125994
O        4.58697804       0.87866075       3.02577402       0.00006236      -0.00326573      -0.00029334
N        5.77771260      -0.26993065       8.78046048      -0.00032543      -0.00036741       0.00120900
H        4.89854315      -0.72570016       8.98822816      -0.00018429      -0.00018716       0.00109389
H        6.42779153      -0.09496517       9.54762295      -0.00064427      -0.00057429       0.00087869
C       17.89113302       0.78625531      17.61910858      -0.00025616       0.00038618       0.00083539
C       16.62405066       0.18278869      17.92945268       0.00063080      -0.00008358       0.00090000
C       18.16722004       1.15465207      16.30646773      -0.00034774       0.00008752       0.00105570
C       15.62920815       0.16648815      16.92466623       0.00039253      -0.00023965       0.00114092
C       18.89885441       1.02442155      18.68923890      -0.00107722      -0.00074949      -0.00133970
C       17.19099330       1.06700054      15.31477737       0.00006114      -0.00001871       0.00115727
C       15.89679632       0.63099542      15.63946294      -0.00008596      -0.00055154       0.00098090
C       14.79365991       0.71714263      14.62582133      -0.00073953      -0.00111860       0.00064751
H       19.15434811       1.54746409      16.06674417      -0.00116034       0.00033508      -0.00001827
H       14.63271186      -0.20947642      17.16090169      -0.00016476       0.00025814       0.00110476
O       20.10897017       1.20434864      18.31812851      -0.00079907      -0.00189799       0.00189574
O       18.48539897       1.08261798      19.90074111       0.00189816      -0.00072931      -0.00091564
H       17.41223637       1.36722127      14.29255404      -0.00129488       0.00009316       0.00063332
O       13.59090553       0.72291653      15.05722271      -0.00071846      -0.00075560       0.00031951
O       15.15979618       0.83355445      13.40339769      -0.00051151      -0.00231333       0.00093502
N       16.39820440      -0.38013128      19.13493421       0.00053200       0.00002907       0.00059269
H       15.52500274      -0.85430189      19.32624912       0.00031981      -0.00036782       0.00116048
H       17.03739610      -0.21361209      19.91212017       0.00016813      -0.00027366       0.00025327
C       17.76439756       1.34951802       5.26556556       0.00134942      -0.00089656      -0.00089724
C       16.44755177       1.83642403       4.96029160       0.00099476       0.00029315       0.00044078
C       18.07968478       1.00374880       6.57555412       0.00001108      -0.00101441      -0.00046464
C       15.46990442       1.79994090       5.98072704       0.00046722       0.00116035       0.00102043
C       18.78933490       1.19958031       4.19862843       0.00005477      -0.00201094      -0.00013456
C       17.11060979       1.01598901       7.57556733       0.00013851      -0.00045198       0.00029558
C       15.78884557       1.37350661       7.26774622      -0.00035422       0.00018418       0.00139637
C       14.71290329       1.25270598       8.30343990      -0.00062057       0.00058026       0.00162988
H       19.09874981       0.70190729       6.80967810      -0.00032000      -0.00191703      -0.00044489
H       14.44635099       2.10207657       5.75564182      -0.00007721       0.00210651       0.00141235
O       19.99370665       1.02264660       4.58872475      -0.00014333      -0.00344030       0.00028068
O       18.40687751       1.19836530       2.97436549      -0.00047130      -0.00127465       0.00007741
H       17.36146962       0.72176637       8.59224418       0.00037565      -0.00097939       0.00060314
O       13.50226255       1.26222535       7.89811801       0.00025937       0.00104416      -0.00006648
O       15.10602957       1.10233140       9.51395334       0.00118661       0.00028549       0.00081355
N       16.15836108       2.33915655       3.74197644       0.00019119       0.00062481       0.00039270
H       16.81809982       2.21566786       2.97297063       0.00033170      -0.00027064       0.00066676
H       15.24037124       2.71495998       3.54410795      -0.00017801       0.00128799       0.00057940
C        7.40101816       1.43279404      15.89861794       0.00124828      -0.00046705      -0.00008483
C        6.11119929       1.99551093      15.60818123       0.00157825       0.00088770       0.00091408
C        7.69958150       1.03898474      17.19875516       0.00026821      -0.00057993       0.00004213
C        5.12965572       1.97117279      16.62434037       0.00119335       0.00126500       0.00062093
C        8.40609557       1.24859874      14.81740625       0.00089903       0.00002431       0.00039862
C        6.72861118       1.06617806      18.19807955       0.00074518      -0.00053927       0.00058920
C        5.42345613       1.48194899      17.89437538       0.00113989       0.00052467       0.00039570
C        4.32812337       1.34681955      18.90692412       0.00090786      -0.00059255       0.00018089
H        8.70062079       0.67249778      17.42086048      -0.00020379      -0.00127897       0.00018178
H        4.12160364       2.32631175      16.40647051       0.00103030       0.00204363       0.00113417
O        9.61790144       1.06204386      15.18244653       0.00088265      -0.00060085      -0.00011594
O        7.99431576       1.23224333      13.60517511      -0.00032705       0.00110651       0.00084079
H        6.96077912       0.72693029      19.20556149       0.00043660      -0.00146044       0.00067819
O        3.12681111       1.35134691      18.47397637       0.00066096      -0.00048623       0.00229943
O        4.69393549       1.18869291      20.12583514      -0.00075839      -0.00170562       0.00011238
N        5.84841103       2.54942190      14.40628649       0.00139937       0.00158287       0.00133737
H        6.49121016       2.40232464      13.62754473       0.00119176       0.00188091       0.00126861
H        4.95485674       2.98747641      14.22331640       0.00217033       0.00247611       0.00159349
C        5.32168162       5.30012813       1.08401667       0.01189747       0.00901212      -0.00386753
C        6.67804481       4.95823272       0.75685148       0.01550102       0.02026838      -0.01407036
C        5.00161375       6.61914497       1.39204502       0.00738290       0.01466921      -0.00833361
C        7.66083926       5.96933125       0.84183058       0.00796716       0.01955900       0.00423915
C        4.26113312       4.26021750       1.10161751      -0.00205389      -0.00563055       0.00574093
C        5.97969438       7.61016128       1.42028872       0.01239650       0.00719150       0.00791941
C        7.31676384       7.28382573       1.14744235       0.00035502      -0.00330143      -0.00285109
C        8.37471832       8.34303350       1.14483000      -0.01086293      -0.07563952       0.04093057
H        3.96722750       6.87082116       1.61733924      -0.00555668      -0.00421116       0.00661660
H        8.70500668       5.71739820       0.64991614      -0.00720538       0.02244229      -0.00407401
O        4.61814213       3.02969450       1.09327797       0.01375176      -0.00292633      -0.00025868
O        3.05169069       4.66734894       1.17669829      -0.00400296       0.00290063       0.00145847
H        5.72346286       8.64082853       1.65575284      -0.01117026      -0.00126293      -0.00911172
O        7.96744030       9.55253775       1.05537430      -0.01449811      -0.02677156       0.04507798
O        9.59106681       7.95322767       1.19175076      -0.00129261       0.01846919      -0.02540071
N        7.01224597       3.71911718       0.33861479       0.00922704      -0.00117734       0.00095668
H        6.32460946       2.96662544       0.38999484      -0.02387708      -0.00240027       0.00302796
H        7.97056649       3.49504259       0.10687881       0.00946539       0.00242846      -0.00586365
C       15.72779792      15.88123463       1.00206619      -0.00379975      -0.00426211      -0.00110389
C       15.42076111      17.20621147       1.45491755      -0.00171296      -0.00203256      -0.00145107
C       17.00871089      15.58152822       0.54995216      -0.00194820       0.00316100      -0.00040005
C       16.41957214      18.19758169       1.33570985      -0.00242585       0.00169543      -0.00101646
C       14.68622726      14.82189329       1.02714024       0.00128678      -0.00536254       0.00099385
C       17.98679938      16.56801307       0.46656130       0.00251562       0.00050291      -0.00145178
C       17.68653839      17.88371614       0.84651060      -0.00053186       0.00034615      -0.00041470
C       18.73950807      18.94146211       0.77733452      -0.00167824      -0.00245617      -0.00043050
H       17.23669957      14.55858854       0.25579816      -0.00281221       0.00345157       0.00144542
H       16.20167432      19.21880039       1.65156925      -0.00112202       0.00460392       0.00090996
O       13.45578147      15.18318229       1.00810093       0.00370817      -0.00552347       0.00016869
O       15.09724276      13.61298798       1.00872203       0.00612051      -0.00492643       0.00723091
H       18.98665240      16.33087597       0.11061075       0.00470244      -0.00291104      -0.00176674
O       19.95044568      18.54238572       0.72220547      -0.00178907      -0.00045257      -0.00068768
O       18.34591878      20.16509719       0.82319894       0.00059712      -0.00293901       0.00003579
N       14.22547898      17.48730735       2.01678343      -0.00125489       0.00289031      -0.00123963
H       13.45853264      16.81770849       1.93790668      -0.00204463       0.00377636       0.00129564
H       14.02917448      18.41471097       2.36910877      -0.00085319       0.00431341      -0.00040791
C        7.17378256      15.73895714       0.75190960      -0.00491390       0.00793213       0.00363011
C        5.82200917      15.41664180       0.39566924      -0.00038777       0.00509906      -0.01029776
C        7.50572249      17.04488266       1.10016750      -0.01038182       0.01294856      -0.00466419
C        4.84670660      16.43279522       0.49722829       0.00120036      -0.00000138      -0.00509757
C        8.22676439      14.69261104       0.75150158       0.01948842      -0.00751323      -0.01374118
C        6.53105335      18.03553704       1.17835798      -0.01996534       0.00075802      -0.00435091
C        5.19290870      17.72405870       0.89220993      -0.01132329      -0.00566985       0.00191142
C        4.13871596      18.78239880       0.97432230       0.00051303       0.00104137       0.00106725
H        8.54570839      17.28262872       1.31548255      -0.00574853       0.00205376       0.00653703
H        3.80799664      16.20406814       0.25357289       0.00869637       0.01142230       0.00324978
O        7.86561459      13.46122482       0.81046735       0.00296184       0.02235619      -0.01786488
O        9.43520668      15.09881969       0.75311965       0.02136927       0.02734132      -0.00283580
H        6.79337994      19.05303813       1.46053219      -0.00280361      -0.01310871      -0.00124389
O        4.55003005      19.98845533       1.05108788      -0.00422476       0.00217423      -0.00083388
O        2.91686114      18.39871879       0.91941707       0.00237281       0.00120609      -0.00109243
N        5.49991872      14.18621277      -0.05911502      -0.00707630      -0.00444327      -0.00047866
H        4.55019293      13.96635728      -0.32865133      -0.00469454       0.00692850      -0.00446963
H        6.17531242      13.42697685       0.03923634       0.01020745      -0.00637621      -0.00057854
C       15.86388899       7.40169446       1.03607223      -0.00005146       0.00343316       0.00564958
C       15.56879640       6.11732506       0.46960310       0.00078452      -0.00033599       0.00252622
C       17.13826952       7.66749226       1.52480950       0.00314007       0.00158912       0.00288642
C       16.56076175       5.11539298       0.54967666       0.00261863       0.00055720      -0.00218262
C       14.80860323       8.44599295       1.10131027      -0.00925112       0.00853212       0.00216378
C       18.11595776       6.67604623       1.55477182       0.00095813      -0.00466080      -0.00226031
C       17.81629084       5.38791091       1.08938671       0.00218545      -0.00295821      -0.00052846
C       18.84832484       4.30644974       1.13863745      -0.00059779       0.00072031       0.00097671
H       17.35860236       8.66507751       1.90079649      -0.00070080       0.00686116       0.00113634
H       16.34456438       4.11663035       0.16729608      -0.00007799       0.00288373       0.00002375
O       13.58909161       8.05324112       1.12567772       0.00025080      -0.03138429      -0.00165538
O       15.19096526       9.66248914       1.18294364       0.01495656       0.00192196       0.00135469
H       19.11144346       6.88429315       1.94115307      -0.00377009       0.00232972       0.00025574
O       20.06841967       4.67309515       1.22624193      -0.00027877       0.00065555       0.00112998
O       18.42366434       3.09716976       1.04954058      -0.00212482       0.00216652       0.00084923
N       14.39641903       5.88020224      -0.15712292      -0.00204958       0.00093833      -0.00255859
H       14.22265835       4.98645475      -0.59809126      -0.00048974       0.00084290      -0.00141518
H       13.61760435       6.53205468      -0.06346481      -0.00375868       0.00596966       0.00003988
C        0.96785614       5.18358306       5.43441990      -0.00548317      -0.00647916       0.00644579
C        0.97950057       4.84087056       6.82982589      -0.01095030       0.00379670       0.00831109
C        0.99930768       6.52345901       5.06002381      -0.00428317      -0.00164788      -0.00384657
C        1.05295376       5.88843868       7.77568746       0.00570050       0.00792129       0.00668913
C        0.95432567       4.13548596       4.38088351       0.00287316       0.00398835       0.00395449
C        1.05264636       7.53962178       6.00950063       0.00972776      -0.00222430       0.00043070
C        1.07992240       7.22278838       7.37643786       0.00499893       0.00021487       0.00786236
C        1.10474873       8.30328102       8.41236010       0.03231625      -0.01003519      -0.00275349
H        0.98216034       6.77174632       4.00143024       0.00037803       0.00709999      -0.01160916
H        1.08331079       5.64734491       8.83887398      -0.00704345       0.01199008       0.00419553
O        0.95244601       2.89674624       4.71759330       0.00219881       0.00681359       0.01147205
O        0.98930907       4.55816844       3.17547823       0.00176682       0.00110650       0.00094555
H        1.06731392       8.58224640       5.70221890      -0.01453209       0.00137816      -0.00335531
O        1.01669745       9.50915363       7.97865239       0.03770847      -0.00708414      -0.01007013
O        1.17129610       7.94132545       9.63348955      -0.01681986       0.00231834       0.00219566
N        0.91552487       3.55725894       7.23439195       0.00484688      -0.00050443       0.00185659
H        0.88251170       2.81426625       6.53334489       0.00292622       0.00266674      -0.00714850
H        0.91885944       3.32267868       8.21775331       0.00175350       0.01018991       0.00766465
C        0.94420599      17.98127403      17.58095077       0.00079103      -0.00203387      -0.00197508
C        0.41119626      18.27623434      16.28336773       0.00176853      -0.00252753      -0.00139346
C        1.43387236      16.71076619      17.86457694       0.00078842      -0.00036444      -0.00184122
C        0.48261664      17.26932113      15.29511254       0.00155575       0.00026599       0.00138189
C        0.93888663      19.01515889      18.64484660      -0.00046296      -0.00079991      -0.00179565
C        1.46954539      15.72557322      16.88338027       0.00131313       0.00213843       0.00015841
C        1.00022422      16.01003037      15.59376411      -0.00293420       0.00380637       0.00747938
C        1.01807320      14.93677132      14.55152085       0.00190615       0.00433638       0.01214187
H        1.79150552      16.49426429      18.86957993      -0.00046451       0.00159151      -0.00276561
H        0.11164686      17.47296979      14.28936412       0.00101019       0.00187015       0.00448104
O        0.96737320      20.25053335      18.30258199       0.00141871      -0.00033311       0.00376331
O        0.96080601      18.58271858      19.84585816       0.00016732       0.00267276      -0.00134400
H        1.85374068      14.73238676      17.10588370      -0.00066860       0.00434567      -0.00031601
O        1.06303372      13.73781754      14.98511382      -0.00391916       0.00120091      -0.01277714
O        0.95053629      15.30695610      13.32705451       0.00388623      -0.01927587       0.01097182
N       -0.17937637      19.46720965      16.03841771       0.00148925      -0.00243044       0.00089517
H       -0.05306850      20.23570073      16.69829129      -0.00145496       0.00128832      -0.00350290
H       -0.58759991      19.66675520      15.13434611       0.00043266       0.00327601       0.00313369
C        1.20349058       5.50368985      17.90265252      -0.00227801       0.00002355      -0.00262765
C        1.42137917       6.88198393      18.24478415      -0.00062058      -0.00021824      -0.00078115
C        0.96558220       5.15439814      16.57618865       0.00152142       0.00319035      -0.00294433
C        1.33861712       7.84669254      17.21574737       0.00003686       0.00117779       0.00036439
C        1.21394517       4.44387233      18.94292017       0.00261315       0.00007818      -0.00192818
C        0.90661871       6.12047467      15.57648003       0.00087557      -0.00274935      -0.00475818
C        1.09523516       7.47331136      15.89667354       0.00624231      -0.00495689       0.00136724
C        1.08676035       8.51493603      14.82224757       0.00355389       0.00135089       0.00279305
H        0.82157750       4.10543493      16.32550547       0.00209043       0.00719101       0.00110815
H        1.47803693       8.90149265      17.45489145       0.00011065       0.00365561       0.00074719
O        1.21187046       4.77525757      20.18221985      -0.00183578      -0.00287952       0.00005035
O        1.16966795       3.24065530      18.51261124      -0.00095698       0.00027700       0.00061883
H        0.72003065       5.83938789      14.54295952       0.00062933      -0.00144371      -0.00549330
O        1.10919900       8.08475226      13.61865531      -0.00019776      -0.02402884       0.01471321
O        1.10459311       9.73644866      15.19363108       0.00269885      -0.00231125       0.01016339
N        1.71802094       7.24837835      19.50759498      -0.00057762      -0.00047202      -0.00024244
H        1.87794059       8.21991844      19.73783857       0.00063207       0.00145778       0.00147695
H        1.67920000       6.55025707      20.25257704      -0.00147435      -0.00615299      -0.00424105
C        0.94796960      17.63829251       5.11216798       0.00326058      -0.00035679      -0.01071902
C        1.30757557      16.28865588       4.78507814       0.00419451       0.00643624      -0.00975668
C        0.57370045      17.95728994       6.41447788       0.00205946       0.00157608      -0.01610915
C        1.21383312      15.30799178       5.79726859      -0.00131778       0.00341620      -0.01056426
C        0.98928029      18.70506149       4.07871749      -0.00328324      -0.00267960       0.00235377
C        0.50596190      16.97872427       7.40095159      -0.01008528       0.01353263      -0.00563101
C        0.82581517      15.64950797       7.09162420       0.00854311       0.00665172      -0.00380556
C        0.81101973      14.61196198       8.16463569      -0.01390967      -0.03353949       0.01655838
H        0.33341699      18.99111215       6.65550950      -0.00015389      -0.00997935      -0.00505808
H        1.47666484      14.27418504       5.56877497       0.00395036      -0.00663300       0.00103218
O        1.00726302      18.37254909       2.83975541      -0.00021417      -0.00129412       0.00495365
O        0.95045714      19.90716990       4.50953073      -0.00024601      -0.00077746      -0.00652838
H        0.21345366      17.23232700       8.41696990      -0.00220207       0.01188898       0.00537839
O        0.77579188      15.03674205       9.36640694       0.00196224       0.02139423       0.00983198
O        0.87728349      13.38148155       7.79370652      -0.01770127       0.02150960       0.01785007
N        1.76081678      15.96875500       3.55457093      -0.00271130       0.00296549       0.00155001
H        2.02832207      15.01834201       3.33527232      -0.00107759       0.01060619       0.00087875
H        1.70866428      16.66145457       2.80493377       0.00116304      -0.00822924       0.00750354
C        7.31520499      11.84155431      17.71033044      -0.00169692      -0.00203593       0.00106132
C        7.66297059      12.23379419      16.37277265      -0.00407114       0.00395095      -0.00388467
C        5.97506042      11.66278772      18.03957596      -0.00476793       0.00162981      -0.00025013
C        6.63946532      12.27297204      15.39744093      -0.00611032       0.00072686       0.00145577
C        8.36504639      11.62680122      18.74520376       0.01696489      -0.00164819       0.02369213
C        4.97475736      11.76392671      17.07513520      -0.00037437       0.00086069      -0.01066286
C        5.31272515      12.01727021      15.73636591      -0.00466961       0.00212884      -0.00528081
C        4.26151738      11.94660168      14.66833863      -0.00440348      -0.00560857      -0.00776077
H        5.71405704      11.41410820      19.06609235       0.00270623      -0.00578344       0.00553001
H        6.89314171      12.50102134      14.36115009      -0.00450612       0.00119471       0.01122446
O        7.95608009      11.53068865      19.95180796      -0.01671999      -0.01669124       0.01087738
O        9.58645174      11.50904240      18.37593251       0.01183432      -0.00286514      -0.01620074
H        3.93026431      11.61738418      17.34230804       0.00937173      -0.00224183      -0.00047681
O        4.65812099      11.90028939      13.45308386      -0.00907523       0.00170089      -0.00292197
O        3.05075069      11.87933343      15.07401484      -0.00007022      -0.00922778      -0.00205602
N        8.92827567      12.58061971      16.06056370       0.00010503       0.00486939      -0.00389520
H        9.67853892      12.41268720      16.73206624       0.00286705       0.00204195       0.00537313
H        9.16560520      12.88539228      15.12563451      -0.00342647       0.00331244       0.00536804
C       17.61889393      11.85887620       7.40185214       0.00214827       0.00333464       0.00195250
C       17.93581982      12.43163862       6.12277716       0.00097189       0.00227386       0.00898542
C       16.30141195      11.52377691       7.69599194       0.00769508       0.00447605       0.00218454
C       16.92535346      12.45070762       5.13510514       0.00957078       0.00299444       0.00046589
C       18.68840815      11.62064242       8.40807800       0.01615403      -0.00021434       0.00006159
C       15.30519290      11.61638841       6.72639933       0.00183636      -0.00087976       0.00051907
C       15.63350442      12.01855505       5.42264996       0.00411784       0.00339211      -0.00050297
C       14.61840558      11.92152138       4.32613400      -0.01660794      -0.00405708      -0.01666524
H       16.06234145      11.15389583       8.69188704      -0.00202194      -0.00075093      -0.00327678
H       17.16337937      12.80028375       4.12961932      -0.00300518       0.00294810       0.00210969
O       18.31325234      11.45862533       9.61917458       0.00991771      -0.00099935      -0.00101770
O       19.89830078      11.54711437       7.99583522      -0.00265223      -0.00824612       0.00524664
H       14.27815933      11.34392546       6.95974511      -0.00365014      -0.00093974      -0.00063911
O       15.05072321      11.88912700       3.12509034       0.01249769      -0.00559899      -0.00672669
O       13.39430901      11.82140959       4.69236635      -0.01520953      -0.00213309       0.00485371
N       19.15323004      12.96205248       5.88297599      -0.00240724       0.00446710      -0.01766383
H       19.92752976      12.77796291       6.52192436       0.00177868       0.00061773       0.00299233
H       19.35440094      13.41561316       5.00059944      -0.00385895      -0.00692716       0.01307531
C       15.85631924      11.17370302      17.83225174      -0.00827078       0.00143953       0.00840736
C       17.24094635      11.00016779      18.17682317      -0.00718802      -0.00124045       0.00074431
C       15.49001026      11.26213543      16.49228742       0.00453379      -0.00046282       0.00421773
C       18.19959964      11.06119848      17.14035600      -0.00185467      -0.00256580       0.00570025
C       14.81281572      11.30495733      18.88372490      -0.00080716      -0.00147314       0.00467070
C       16.45075024      11.29384546      15.48532865      -0.00414637      -0.00138924      -0.00367257
C       17.81393439      11.24321305      15.81490870      -0.00630491      -0.00355672       0.00752526
C       18.85598522      11.43545671      14.75900658      -0.00179648      -0.00027177       0.01249392
H       14.43391908      11.32771619      16.23808374       0.00963740      -0.00072787       0.00327503
H       19.25977004      10.98232236      17.38276517       0.00367157      -0.00189134       0.00043521
O       13.60492444      11.35986413      18.47323904      -0.00183393       0.00549991       0.01132107
O       15.17403902      11.41260447      20.11027843      -0.00717249      -0.00888589       0.00689645
H       16.15836217      11.38363231      14.44216634      -0.00508054      -0.00131438      -0.00882343
O       20.06534752      11.56542960      15.14695425      -0.00145312      -0.00545985      -0.00813271
O       18.43410225      11.49817269      13.55250352       0.00727808       0.00532961       0.01147258
N       17.61998395      10.77778532      19.45123296      -0.00294662      -0.00114363      -0.00333869
H       18.59442197      10.63553564      19.68091567      -0.00134565      -0.00338229       0.00184412
H       16.92999293      10.85942693      20.20037291       0.00094098       0.00011656      -0.00601186
C        5.26499863      11.37881342       7.25862830      -0.00662187       0.02335087      -0.02200969
C        4.93092234      11.06909161       5.89592720       0.01818345      -0.00197210      -0.03163351
C        6.57883625      11.70275793       7.58481380       0.02021306      -0.01440407      -0.01364749
C        5.95683476      11.12510162       4.92539244       0.01039351      -0.00455618      -0.01896251
C        4.21424788      11.41553158       8.30863645      -0.03125526      -0.03036540       0.03607637
C        7.57630311      11.73219808       6.61342818       0.02291608      -0.02327435      -0.01393186
C        7.26563553      11.44174001       5.27458980      -0.01030810       0.04586946      -0.01701393
C        8.31241596      11.51462548       4.20465568      -0.00459448      -0.06550672       0.03768393
H        6.82335649      11.94178470       8.61808228      -0.01922357      -0.01991130       0.00548554
H        5.72096285      10.92669417       3.87939814      -0.01421363      -0.02226781       0.00514207
O        4.60812897      11.54635340       9.51545541       0.04840455       0.05765251       0.01690818
O        2.98388913      11.36264813       7.94852402      -0.04113543       0.03863240      -0.03557088