504
Lattice="20.98447599799627 0.0 0.0 0.0 20.98447599799627 0.0 0.0 0.0 20.98447599799627" Properties=species:S:1:pos:R:3:forces:R:3 energy=-3715.1883759952507 stress="0.0003064721250573598 5.500761897372104e-05 0.00020101979138208628 5.500761897372104e-05 -0.00047051678714275184 1.761742789062766e-05 0.00020101979138208628 1.761742789062766e-05 0.00020489549035124276" pbc="T T T"
C        7.27637787       0.85691585       7.24514530      -0.00014304      -0.00125047       0.00190413
C        6.00353156       0.27264592       7.56438034       0.00011084      -0.00157296       0.00294598
C        7.55162354       1.22430406       5.93243573       0.00106958      -0.00128641       0.00222897
C        5.00895245       0.25120673       6.55956842      -0.00081062      -0.00101338       0.00298210
C        8.30345601       1.06218819       8.30246402      -0.00051742      -0.00014829       0.00024126
C        6.57469376       1.13801291       4.94342075      -0.00007183      -0.00131369       0.00318311
C        5.28205912       0.69953521       5.26972207      -0.00067166       0.00092048       0.00226396
C        4.19381254       0.76195471       4.24067153      -0.00082350      -0.00146804      -0.00162379
H        8.53987813       1.61089729       5.68882155       0.00060701      -0.00072709      -0.00046127
H        4.01080321      -0.11869233       6.79720148      -0.00140966      -0.00178643       0.00211854
O        9.50765104       1.21825291       7.90247810      -0.00077546      -0.00029047       0.00015360
O        7.91955345       1.11676775       9.52274273      -0.00068725       0.00027222       0.00001775
H        6.79660516       1.43623785       3.92102798      -0.00212214      -0.00297898       0.00207162
O        2.98142839       0.74864745       4.64280690       0.00387822      -0.00011068       0.00251173
O        4.58914747       0.88030610       3.02725931      -0.00488702      -0.00545610      -0.00518762
N        5.77829724      -0.26949607       8.77961082      -0.00035755      -0.00127584       0.00279321
H        4.89902203      -0.72520639       8.98692750      -0.00080441      -0.00096580       0.00191932
H        6.42814306      -0.09460000       9.54694591      -0.00024852      -0.00046852       0.00181847
C       17.88924181       0.78579122      17.62328449      -0.00127455       0.00491059      -0.00419213
C       16.62175692       0.18279912      17.93213082      -0.00427897      -0.00015793      -0.00137670
C       18.16557060       1.15310675      16.31067981       0.00107827       0.00240500      -0.00776246
C       15.62786104       0.16537284      16.92594297      -0.00137326       0.00052398      -0.00269912
C       18.89772154       1.02831246      18.69303496       0.00609360       0.00124649       0.00018668
C       17.19048224       1.06569759      15.31784064      -0.00454149      -0.00054303      -0.00375823
C       15.89584147       0.63025927      15.64082258      -0.00251154       0.00034971      -0.00192929
C       14.79316636       0.71890474      14.62588485       0.00199083      -0.00106865       0.00552501
H       19.15264961       1.54566131      16.07134393       0.00629343       0.00268738      -0.00053198
H       14.63115693      -0.21141439      17.16007398       0.00178123       0.00032629       0.00751627
O       20.10686825       1.20723499      18.32011565      -0.00285569      -0.01798518      -0.01764471
O       18.48542915       1.09195658      19.90402437      -0.02284549      -0.00853946      -0.00275330
H       17.41267404       1.36574618      14.29581400       0.00132491       0.00107188       0.00014302
O       13.59011848       0.72454040      15.05661516       0.00248245      -0.00099910       0.00459909
O       15.15958158       0.83788927      13.40374296       0.00183566      -0.00336387       0.00632015
N       16.39464187      -0.37839279      19.13795655       0.01100842       0.00328890       0.00579220
H       15.52266009      -0.85504393      19.32816799      -0.00263810      -0.00020713       0.00429021
H       17.03315217      -0.21232129      19.91570468       0.00762004       0.00275314       0.00413791
C       17.76538720       1.35066858       5.26517230      -0.00312889       0.00060987      -0.00005766
C       16.44805861       1.83601203       4.95964262      -0.00095336       0.00079346       0.00032834
C       18.08029401       1.00476660       6.57528776      -0.00026578      -0.00095064      -0.00196806
C       15.46975081       1.79822958       5.97969242       0.00138881       0.00127729       0.00042948
C       18.79162573       1.20639582       4.19777868      -0.00023016       0.00579217       0.00509089
C       17.11064279       1.01601190       7.57512109       0.00211189      -0.00069790      -0.00208965
C       15.78849750       1.37229572       7.26699200       0.00253001       0.00077362      -0.00054440
C       14.71233157       1.25188962       8.30273845       0.00105352       0.00176610       0.00083505
H       19.09979267       0.70419326       6.80956425      -0.00230866      -0.00148648      -0.00120553
H       14.44603425       2.09946550       5.75388309       0.00140158       0.00119226       0.00250875
O       19.99613892       1.03241387       4.58845493      -0.00221424       0.00022497      -0.00807162
O       18.40979836       1.20865559       2.97358387       0.00676762       0.00346440      -0.00008405
H       17.36147050       0.72235278       8.59206784       0.00009763      -0.00090994      -0.00220386
O       13.50178991       1.26141316       7.89725087       0.00015812       0.00114832       0.00267167
O       15.10533616       1.10227865       9.51348153      -0.00031178       0.00200092       0.00136081
N       16.15934665       2.33863098       3.74118571       0.00079610      -0.00007157       0.00087431
H       16.82085864       2.21568990       2.97316253      -0.00199013       0.00035419       0.00188968
H       15.24119476       2.71349433       3.54223873       0.00045184       0.00039160       0.00159579
C        7.40046972       1.43380469      15.89622972       0.00117278       0.00061739       0.00446945
C        6.11041357       1.99624099      15.60534227       0.00101355       0.00174580       0.00623813
C        7.70008212       1.03994932      17.19604454       0.00175960       0.00051570       0.00157788
C        5.12972730       1.97267919      16.62241736       0.00027021      -0.00455223       0.00119266
C        8.40554719       1.24933765      14.81580597       0.00138504       0.00046235      -0.00018040
C        6.73001220       1.06880287      18.19596590       0.00655810      -0.00714687       0.00001089
C        5.42520613       1.48345936      17.89239994       0.01462899      -0.00386782      -0.00218403
C        4.33194866       1.33814188      18.90557085       0.01786604      -0.00293899      -0.00380386
H        8.70064189       0.67182478      17.41785305      -0.00158317       0.00209337      -0.00199870
H        4.12096624       2.32641616      16.40523892       0.00185240       0.00256624       0.00407134
O        9.61724279       1.06324285      15.18151327       0.00212608       0.00048462      -0.00199743
O        7.99405096       1.23217395      13.60354412      -0.00021835       0.00142280       0.00009146
H        6.96135864       0.72891345      19.20346287       0.00532278       0.00204704       0.00002102
O        3.13366377       1.31615056      18.46810698       0.00782961       0.00587751       0.00284208
O        4.69749991       1.19609806      20.12594806      -0.00454085      -0.01047101      -0.00195466
N        5.84706011       2.54775592      14.40241324       0.00069925       0.00271995       0.00583584
H        6.49078575       2.40124922      13.62429560      -0.00035134       0.00200945       0.00214132
H        4.95370976       2.98590214      14.21855661       0.00241402       0.00146397       0.00462642
C        5.33378529       5.30596923       1.08898709      -0.00740260      -0.00378842       0.00316990
C        6.69044043       4.97136037       0.75834254      -0.00269360       0.00263833       0.00197289
C        5.00156644       6.62413799       1.38707756       0.00421200      -0.00336324       0.00130353
C        7.66691424       5.98722671       0.84661906       0.00342717       0.00210782      -0.00150772
C        4.28055019       4.25827820       1.12519882      -0.00917473      -0.00222187      -0.01339988
C        5.97446451       7.61917977       1.42562588       0.00496874      -0.00037000      -0.00087581
C        7.31573750       7.29541354       1.16707769       0.00290328       0.00295129      -0.00175178
C        8.37344951       8.35137764       1.18296643       0.00024040      -0.00033274      -0.00040982
H        3.96209462       6.86885962       1.59606256       0.00379085      -0.00299764      -0.00064472
H        8.71180577       5.74567935       0.64800380       0.00328346       0.00442420       0.00148301
O        4.64002914       3.02804288       1.09608869      -0.00422881       0.00030231       0.00315721
O        3.07483804       4.66229268       1.23407508      -0.01721390      -0.00206915      -0.03206716
H        5.70905541       8.64899417       1.65412042       0.00150214      -0.00241788       0.00058176
O        7.96526970       9.56238930       1.12183265       0.00311655      -0.00019330       0.00118807
O        9.59049345       7.96187466       1.20815533       0.00058484       0.00299011       0.00126148
N        7.02597850       3.73150347       0.34537358       0.01773103       0.00178730      -0.00713643
H        6.33390979       2.98138120       0.39521642      -0.00024980      -0.00322430       0.00125019
H        7.98348214       3.50881410       0.10830725      -0.00312142      -0.00098328      -0.00246207
C       15.73312652      15.88194772       1.00261872       0.00062732       0.00133977      -0.00026185
C       15.42376665      17.20648405       1.45578102      -0.00004319       0.00138945      -0.00061588
C       17.01438825      15.58504504       0.54992419       0.00039212       0.00273427       0.00004713
C       16.42127848      18.19941281       1.33653757      -0.00180581       0.00307382      -0.00069868
C       14.69298158      14.82119249       1.02467549       0.00055807       0.00113925      -0.00063487
C       17.99127548      16.57302166       0.46672995      -0.00019317       0.00245748      -0.00049547
C       17.68882027      17.88846535       0.84715752      -0.00142879       0.00044368      -0.00047157
C       18.74020354      18.94915276       0.77947249       0.00013123      -0.00052186      -0.00403657
H       17.24318985      14.56240629       0.25525975       0.00134862       0.00381649       0.00074751
H       16.20219905      19.22028535       1.65299314      -0.00153120       0.00350784      -0.00003798
O       13.46334136      15.18338759       1.00021758       0.00055941       0.00100577      -0.00092509
O       15.10408414      13.61203218       1.00896349       0.00028322       0.00103742      -0.00097114
H       18.99144800      16.33657783       0.11057746       0.00013851       0.00301223       0.00080837
O       19.95098639      18.54811048       0.72565464       0.00284633       0.00582626      -0.00205004
O       18.34714360      20.17204856       0.82410283      -0.00607481      -0.00543475      -0.00245018
N       14.22834133      17.48703919       2.01770312       0.00018932       0.00057902      -0.00131198
H       13.46147017      16.81719285       1.94187532       0.00063458       0.00050851      -0.00088383
H       14.03228382      18.41432997       2.37073152      -0.00049807      -0.00001866      -0.00118511
C        7.18524518      15.76112569       0.73702522      -0.00082106       0.00192970      -0.00181555
C        5.83169957      15.43055544       0.39141936      -0.00038656       0.00005955      -0.00337417
C        7.50846402      17.06680943       1.09391598      -0.00028777       0.00072041      -0.00053618
C        4.85145723      16.44140304       0.49839632       0.00064076      -0.00100821      -0.00290152
C        8.24583843      14.72159928       0.72937223      -0.00004609       0.00082856      -0.00145197
C        6.52779925      18.05051202       1.18006628       0.00040445      -0.00043771      -0.00054050
C        5.19154014      17.73320096       0.89454852       0.00214935      -0.00329321      -0.00036112
C        4.13500857      18.78827296       0.97454145       0.00185811       0.00180000       0.00222863
H        8.54653375      17.31031447       1.31170996      -0.00149631      -0.00012890      -0.00025870
H        3.81241736      16.20944932       0.26072542       0.00104612      -0.00075063      -0.00346348
O        7.88862655      13.48874582       0.76904672       0.00178167       0.00017591      -0.00077417
O        9.45321135      15.13202427       0.74738495       0.00066945      -0.00122938      -0.00025286
H        6.78513645      19.06737795       1.46773546      -0.00094770      -0.00151648      -0.00034865
O        4.54707772      19.99415679       1.05050751      -0.00391310      -0.00167454       0.00090074
O        2.91455622      18.40270569       0.91778197      -0.00032486       0.00050474       0.00017569
N        5.50775097      14.19636523      -0.05129779       0.00208336       0.00032606      -0.00476076
H        4.55502598      13.97376447      -0.30801017       0.00161504       0.00061307      -0.00606758
H        6.18972855      13.44141732       0.03795807       0.00182917       0.00011070      -0.00447539
C       15.85902326       7.40281380       1.03976294      -0.00059770       0.00053101      -0.00058960
C       15.56586570       6.11838879       0.47263089      -0.00135360      -0.00203577      -0.00079996
C       17.13365723       7.67164059       1.52639245      -0.00087737       0.00375280       0.00169703
C       16.56013517       5.11865613       0.55012093       0.00504189       0.00099363       0.00030833
C       14.80268955       8.44617386       1.10104671      -0.00085802       0.00262144       0.00082423
C       18.11375092       6.68266874       1.55319796      -0.00208007      -0.00032494      -0.00171504
C       17.81591049       5.39471617       1.08669157       0.00724673      -0.00390848       0.00326067
C       18.85222763       4.31612534       1.13318347       0.00771343      -0.00119210       0.00223286
H       17.35175448       8.66972686       1.90222282       0.00204571       0.00620137       0.00297151
H       16.34600592       4.11927393       0.16827459      -0.00121459       0.00378129      -0.00098560
O       13.58338121       8.05184785       1.12280646      -0.00097208       0.00207757       0.00089281
O       15.18598263       9.66234000       1.18059777      -0.00096372       0.00256571       0.00061711
H       19.10970151       6.89293589       1.93735334      -0.00357199      -0.00097462      -0.00164619
O       20.06943944       4.68702458       1.21741760       0.00506180      -0.00459597       0.00852295
O       18.42883426       3.10637486       1.04586311      -0.00799714       0.00057289      -0.00039308
N       14.39359955       5.88004591      -0.15376752      -0.00445113       0.00166024      -0.00293635
H       14.22032138       4.98642380      -0.59503926       0.00133573      -0.00216194      -0.00139032
H       13.61406878       6.53079169      -0.05739714      -0.00525553       0.00567779       0.00084584
C        0.96190445       5.19709192       5.43599601       0.00041046       0.00049434      -0.00074157
C        0.97578260       4.85942970       6.83218812       0.00102400       0.00099994      -0.00116019
C        0.99543353       6.53549207       5.05634400      -0.00020827       0.00045557       0.00179325
C        1.05703171       5.90961326       7.77472113       0.00062486       0.00157666       0.00294426
C        0.95025320       4.14562514       4.38394900       0.00038911       0.00123478      -0.00093834
C        1.05823181       7.55420562       6.00261198      -0.00073538       0.00439897      -0.00034384
C        1.09742143       7.24168117       7.37068570       0.00002455       0.00168456       0.00331614
C        1.13902060       8.32298511       8.40477092       0.00178914      -0.00263840      -0.00119861
H        0.97467174       6.77996258       3.99649995      -0.00153539       0.00313616       0.00161332
H        1.08290072       5.67366188       8.83906110       0.00169714      -0.00035540       0.00383386
O        0.95501103       2.90796689       4.72435330       0.00052329       0.00257428      -0.00030379
O        0.98074235       4.56778419       3.17935344       0.00815002      -0.00159713      -0.00422919
H        1.06694291       8.59554092       5.69108628      -0.00028460       0.00613353       0.00217544
O        1.06659333       9.52941903       7.97084688      -0.00059795      -0.00377261      -0.00080577
O        1.19705694       7.96169678       9.62679122      -0.00548951      -0.00951205       0.00691278
N        0.91266327       3.57681908       7.23910652       0.00155358       0.00106833       0.00805037
H        0.88277632       2.83280116       6.53847322       0.00068510       0.00049343      -0.00217345
H        0.91714920       3.34566688       8.22338588       0.00167628       0.00128329      -0.00066638
C        0.94379657      17.98473883      17.58431041       0.00205292      -0.00763645      -0.00903981
C        0.41081304      18.27829596      16.28662143       0.00057305       0.00028049      -0.00099330
C        1.43346824      16.71464214      17.86968438       0.00061621      -0.00101958      -0.00087797
C        0.48247291      17.27032326      15.29996531       0.00014516       0.00062100       0.00051567
C        0.93771064      19.01991257      18.64645627      -0.00451531      -0.00709762      -0.00552676
C        1.46932078      15.72772605      16.89022811       0.00046354       0.00311106       0.00106939
C        0.99968316      16.01107576      15.60053349      -0.00019498       0.00383050       0.00302915
C        1.01845180      14.93975160      14.55825735       0.00406322       0.00170401      -0.00014769
H        1.79099427      16.50002463      18.87510387       0.00016116       0.00043647      -0.00174249
H        0.11226058      17.47300852      14.29379743      -0.00017734       0.00272674       0.00434411
O        0.96689315      20.25438389      18.30288779      -0.00184600      -0.01124183       0.00497756
O        0.95741635      18.58749978      19.84744802       0.00310373       0.00549962      -0.00075446
H        1.85440309      14.73526887      17.11475858      -0.00285642       0.00597730      -0.00303469
O        1.06262303      13.73830347      14.98853900       0.00327970       0.00073366      -0.01783965
O        0.95218387      15.30931263      13.33365010      -0.00425845       0.00071850       0.00027245
N       -0.17964181      19.46908716      16.04063569      -0.00199752      -0.00171540      -0.00602573
H       -0.05347995      20.23804948      16.70003119      -0.00044208       0.00486095      -0.00069897
H       -0.58787543      19.66819169      15.13636955       0.00206386       0.00135594       0.00665092
C        1.09543926       7.48313357      15.92419491       0.04034985       0.01106266       0.01317566
C        1.35651923       7.83809328      17.29233376       0.01700325       0.01483508      -0.00217897
C        0.91577148       6.14527296      15.58993386       0.01888702       0.01239428      -0.01155540
C        1.40000780       6.80922113      18.25988238      -0.03612282       0.02747138      -0.00247956
C        1.08029719       8.51104419      14.85011278      -0.01043608       0.01379070       0.02222180
C        0.96144002       5.14879121      16.55862983      -0.02875902      -0.00947444      -0.00191808
C        1.21084041       5.47884379      17.90009105       0.00069925       0.02351478       0.01482870
C        1.24022439       4.41349343      18.94832598      -0.00187340      -0.03491128       0.01182585
H        0.74555281       5.88302544      14.54879085      -0.02414481       0.00180201      -0.02027049
H        1.57188417       7.06485125      19.30666859       0.01468669      -0.02873476      -0.01508211
O        1.10671603       9.74954249      15.18613336       0.00161748       0.00755675       0.00581291
O        1.06843644       8.08434985      13.64798636       0.03894744       0.00786898       0.01508342
H        0.79094567       4.11044488      16.28889576       0.03173635      -0.04795391      -0.01759890
O        1.21073473       3.20868676      18.51097046      -0.03270546       0.01565391      -0.03088739
O        1.24897560       4.77188887      20.17166759      -0.00984527       0.02934095       0.04260945
N        1.59538601       9.11652202      17.65513641      -0.02452599      -0.01168276       0.03700971
H        1.72443478       9.34636226      18.63198153       0.02588086       0.03823709      -0.02756325
H        1.50317961       9.86002895      16.95857094      -0.01985224      -0.03688304       0.02092064
C        0.94922679      17.65334098       5.11079158      -0.00146190      -0.00008756      -0.00069214
C        1.30578949      16.30143615       4.79217533      -0.00016557       0.00065457      -0.00002106
C        0.57438360      17.98119308       6.41026003      -0.00152157       0.00215442       0.00038876
C        1.20833970      15.32757870       5.81056756      -0.00093860       0.00108871       0.00051955
C        0.98956285      18.71542469       4.07269791      -0.00138962       0.00417916       0.00068337
C        0.50228919      17.01051973       7.40375832      -0.00139195      -0.00039936      -0.00124259
C        0.81703859      15.67833282       7.10195492      -0.00276050      -0.00087667       0.00224359
C        0.78720619      14.64423469       8.17816046      -0.00046520       0.00312502       0.00209705
H        0.33644542      19.01679725       6.64391026      -0.00244444       0.00362806      -0.00081747
H        1.47002422      14.29153811       5.58981964      -0.00009210       0.00217164      -0.00107292
O        1.00530593      18.37656112       2.83575133      -0.00171754       0.00533228      -0.00422265
O        0.95126544      19.91834658       4.50002317      -0.00262300      -0.00257221      -0.00107336
H        0.21114716      17.27376918       8.41796579      -0.00174041       0.00197454      -0.00198557
O        0.76692225      15.07286876       9.38013161       0.00242669       0.00042550       0.00393883
O        0.82911022      13.41330723       7.81144169      -0.00247336       0.00404897      -0.01013603
N        1.75692978      15.97383337       3.56331165      -0.00031744       0.00424399      -0.00205183
H        2.02290758      15.02218523       3.34871281       0.00073588       0.00142211       0.00021655
H        1.70462019      16.66208968       2.80995562       0.00011288       0.00312298      -0.00102713
C        7.31144092      11.83922334      17.71122926       0.00054535      -0.00228082       0.00113591
C        7.66107666      12.23000493      16.37286667       0.00004834       0.00013608       0.00301106
C        5.97054043      11.66428205      18.03662191       0.00149678      -0.00108977       0.00364667
C        6.63934571      12.26912375      15.39459111      -0.00264932      -0.00195208       0.00314464
C        8.35818344      11.61937506      18.74972010      -0.00288869      -0.00057002      -0.00441793
C        4.97332120      11.76586214      17.06874193      -0.00299936      -0.00306055       0.00747704
C        5.31077740      12.01444108      15.72932753      -0.00712828      -0.00143396       0.00432416
C        4.25704385      11.94118338      14.66308980      -0.02216915      -0.00636866       0.00028670
H        5.70650603      11.41808086      19.06316698       0.00147651      -0.00481614       0.00063282
H        6.89730471      12.49715672      14.35964661      -0.00984456       0.00101685      -0.00182211
O        7.94520772      11.51148246      19.95482938       0.00135033       0.00036442      -0.00365158
O        9.58068132      11.50774602      18.38214074      -0.00266655       0.00086840      -0.00197408
H        3.92899209      11.62597936      17.33742106      -0.00605903      -0.00072112       0.00602816
O        4.64508379      11.90300912      13.44554297       0.02481679       0.00387245       0.00427184
O        3.04487138      11.86345099      15.07249385      -0.00366222      -0.00520609       0.01254907
N        8.92800832      12.57447745      16.06367836      -0.00470976       0.00224623       0.00041557
H        9.67628036      12.40919429      16.73851495      -0.00825874       0.00364641      -0.00247643
H        9.16897022      12.87823749      15.12942831      -0.00617184       0.00502504       0.00039670
C       17.61736801      11.85671769       7.40155356       0.00272551      -0.00141505      -0.00149187
C       17.93523851      12.42932635       6.12317499       0.00090919       0.00244217      -0.00302555
C       16.29902362      11.52388364       7.69540844       0.00281539       0.00103752      -0.00315453
C       16.92657092      12.44621966       5.13377911      -0.00109051       0.00242725      -0.00182014
C       18.68779569      11.61667476       8.40514380      -0.00160159       0.00164305       0.00333552
C       15.30402190      11.61588859       6.72425637       0.00126025       0.00055082      -0.00182958
C       15.63405070      12.01517648       5.41977802      -0.00100439       0.00164417      -0.00144301
C       14.61955292      11.91931303       4.32140119      -0.00034097       0.00136321      -0.00062324
H       16.05758832      11.15527467       8.69125383       0.00320223       0.00113747      -0.00340068
H       17.16567076      12.79501314       4.12837435      -0.00081955       0.00279394      -0.00173460
O       18.31329932      11.46096952       9.61774288       0.00189947       0.00349065       0.00615955
O       19.89705999      11.53457509       7.99346468      -0.00563626      -0.00009701      -0.01064970
H       14.27605089      11.34559447       6.95681043       0.00178783      -0.00081690      -0.00091881
O       15.05399000      11.88367054       3.12128105      -0.00056102       0.00079133      -0.00080995
O       13.39479142      11.82511854       4.68748625       0.00016763       0.00046446      -0.00034372
N       19.15170233      12.96129756       5.88350542       0.00037563       0.00270049      -0.00255591
H       19.92488331      12.78955176       6.52688060       0.00041722       0.00294239      -0.00279652
H       19.35202774      13.41433667       5.00121271       0.00188728       0.00388309      -0.00255647
C       15.85511809      11.17413641      17.83349709       0.00099598      -0.00162895      -0.00806151
C       17.23918576      11.00085707      18.17888203       0.00118372      -0.00258153      -0.00362857
C       15.49168518      11.26400098      16.49277459       0.00419249      -0.00131364      -0.00568232
C       18.19883322      11.05979630      17.14270777       0.00168620       0.00228892       0.00268417
C       14.80997125      11.30179998      18.88353505       0.00112924      -0.00100310      -0.00294864
C       16.45308020      11.29397361      15.48575210       0.00008843       0.00186037       0.00009012
C       17.81674935      11.24009715      15.81543772      -0.00738953       0.00450975       0.00899138
C       18.85999900      11.43175364      14.75949942       0.00048603      -0.00226037       0.00774661
H       14.43587712      11.33144784      16.23780652       0.00986926      -0.00073344       0.00091252
H       19.25844966      10.98218497      17.38826966       0.00144794      -0.00195374       0.00021301
O       13.60222690      11.35645258      18.47279543      -0.00009233      -0.00030008       0.00310922
O       15.17035025      11.40706146      20.11062950      -0.00378447       0.00025030      -0.00066025
H       16.15995075      11.38585432      14.44248044       0.00267662      -0.00518798       0.00348804
O       20.07168384      11.56451993      15.14396962      -0.00097041      -0.01498728      -0.00079557
O       18.43713694      11.49216449      13.55260912       0.00847258       0.00493774       0.00295070
N       17.61760035      10.78073936      19.45428295      -0.00502142      -0.00240476      -0.00523815
H       18.59151571      10.63819796      19.68600706      -0.00226572      -0.00287785      -0.00031593
H       16.92626248      10.86194679      20.20229103       0.00240795      -0.00159821      -0.00372716
C        5.25111927      11.37845250       7.22991271      -0.00532716      -0.00081568       0.00621704
C        4.92415843      11.06280963       5.86634004      -0.00094662      -0.00058706       0.00467650
C        6.57324374      11.64922966       7.57024691      -0.00328624      -0.00199111       0.00011231
C        5.95482693      11.11208470       4.90117911      -0.00028045      -0.00312235       0.00164432
C        4.19495327      11.44951680       8.27594558      -0.00019224      -0.00999961      -0.00014643
C        7.57611709      11.67717074       6.60448246      -0.00096456      -0.00338636       0.00062129
C        7.26148579      11.43079359       5.25859711       0.00130623      -0.00265905      -0.00094153
C        8.30763546      11.54346961       4.19488666       0.00126299      -0.00062344      -0.00153297
H        6.81560124      11.85423743       8.61114126       0.00110181      -0.00401276      -0.00102701
H        5.72144783      10.91073386       3.85513910       0.00090692      -0.00361256      -0.00009090
O        4.59054894      11.57080774       9.48492756       0.00294466      -0.00562491       0.00112103
O        2.96561320      11.43949579       7.90828245      -0.00084503      -0.00731479      -0.00501512