448
Lattice="26.06595293265081 0.0 0.0 0.0 26.06595293265081 0.0 0.0 0.0 26.06595293265081" Properties=species:S:1:pos:R:3:forces:R:3 energy=-3064.9052219128553 stress="9.175329763227839e-06 -1.0108338574670686e-06 3.0660883047526338e-06 -1.0108338574670686e-06 8.057061298888065e-06 4.5585892537617034e-06 3.0660883047526338e-06 4.5585892537617034e-06 -1.7948920612699624e-07" pbc="T T T"
C        6.58866892      14.40682894       6.39033617       0.00092024       0.00061467      -0.00067376
O        8.33552663      14.26565479       4.71249006       0.00146221      -0.00042912      -0.00097129
H        8.18532807      15.24973454       4.85658885       0.00147323      -0.00021086      -0.00109617
C        5.71513129      12.31400042       7.25237648      -0.00038945       0.00042985      -0.00140364
H        5.04909861      14.26921589       7.87244823       0.00149908       0.00133093      -0.00172016
C        7.47347857      13.66495664       5.54547355       0.00063259       0.00006839      -0.00039539
C        6.58729253      10.09563042       6.43329146       0.00022309      -0.00070860       0.00116747
C        6.58939783      15.88416645       6.38449646       0.00189783       0.00051847      -0.00057646
C        5.72221929      13.70478025       7.23056797       0.00057190       0.00017811      -0.00113137
O        5.75869526       9.52418541       7.22160605       0.00449843      -0.00001534       0.00076889
C        6.58515151      11.58747572       6.42049820      -0.00027913      -0.00197171      -0.00037733
H        8.13185207      11.70997318       4.92871447       0.00046045      -0.00029420      -0.00015145
O        5.77402193      16.47522501       7.15635071       0.00231788       0.00032580       0.00010739
O        7.42289824       9.52282840       5.65069148      -0.00127272       0.00025874       0.00077355
O        7.42186667      16.48012075       5.59278087       0.00178363       0.00075197      -0.00075789
H        5.03669166      11.77806142       7.91317837      -0.00138431       0.00122096      -0.00185457
C        7.45539328      12.26299974       5.57501732      -0.00031206      -0.00094136       0.00024607
C      -14.33893076       6.50136338       6.47415697       0.00090914       0.00230202      -0.00142645
O      -14.18998664       8.38345982       4.94922724       0.00042498       0.00122758      -0.00141816
H      -15.17419698       8.20873381       5.05783715       0.00107930      -0.00023968      -0.00312538
C      -12.24775938       5.55886196       7.26759301       0.00014438       0.00140402      -0.00157719
H      -14.20558322       4.84680858       7.82680380       0.00028250       0.00062884      -0.00099062
C      -13.59309338       7.45496333       5.71109818      -0.00028952       0.00055435      -0.00062148
C      -10.02603964       6.49981830       6.53204168       0.00008539       0.00112993      -0.00068910
C      -15.81542883       6.50401357       6.46056104      -0.00454400       0.00334362       0.00075980
C      -13.63899862       5.56960031       7.24331549       0.00068929       0.00138896      -0.00126188
O       -9.44973390       5.62625381       7.26819439      -0.00041320       0.00187933       0.00046700
C      -11.51745573       6.49624150       6.51558101       0.00051754       0.00099862      -0.00128460
H      -11.63679002       8.16608290       5.16269287       0.00108268       0.00027849      -0.00160713
O      -16.41341607       5.66164876       7.20088820       0.00109396       0.00998142       0.00676480
O       -9.45074370       7.38162390       5.80210228       0.00061230       0.00040414      -0.00108967
O      -16.40932861       7.36376704       5.69756053       0.00085226      -0.00092850      -0.00473607
H      -11.71482128       4.82521786       7.86954609      -0.00007081       0.00288319      -0.00276537
C      -12.19126756       7.43607715       5.74646140       0.00080523       0.00043115      -0.00112228
C       -6.36720916      11.64325209       6.51914959       0.00052102      -0.00019826       0.00059156
O       -4.71414244      11.80985153       8.28763370      -0.00116716       0.00096520       0.00069350
H       -4.84867403      10.82403539       8.14502175      -0.00065376       0.00052297       0.00099058
C       -7.22470813      13.72439600       5.61122097       0.00018907       0.00065307      -0.00031468
H       -7.82386134      11.76016593       4.95380345       0.00046966      -0.00182369      -0.00111712
C       -5.54028247      12.39830004       7.40987598      -0.00058523       0.00146332       0.00039739
C       -6.43676651      15.95512208       6.48146046      -0.00265234      -0.00111119      -0.00022729
C       -6.35817223      10.16688356       6.53766013       0.00035395      -0.00082760       0.00066364
C       -7.19581383      12.33364458       5.63231542       0.00056873      -0.00038586      -0.00015706
O       -7.20824725      16.52137110       5.62988190      -0.00493047       0.00047595       0.00289081
C       -6.41448923      14.46392981       6.49013200      -0.00143223       0.00102152      -0.00021239
H       -4.94876987      14.36235004       8.06376315      -0.00184579       0.00038797      -0.00081728
O       -7.12461201       9.56513625       5.72201833       0.00009484      -0.00042337       0.00056840
O       -5.67990494      16.53904820       7.33180461      -0.00098556       0.00102486      -0.00322665
O       -5.57293960       9.57795507       7.38061563       0.00062600       0.00006582       0.00105660
H       -7.87544196      14.24981283       4.91501759      -0.00010241      -0.00149192      -0.00207503
C       -5.57972964      13.79988377       7.38045944      -0.00155765       0.00096421      -0.00049521
C      -11.55458165      -6.52845641       6.44585158      -0.00241481      -0.00809849      -0.00802820
O      -11.68102663      -8.29963134       4.79172070      -0.00155366      -0.00249993      -0.00107867
H      -10.69865074      -8.13578205       4.93099434      -0.00384627      -0.00609414      -0.00486147
C      -13.65827681      -5.64560348       7.27486728       0.00298987      -0.00081980      -0.00209973
H      -11.71049417      -4.96744094       7.90436172       0.00719853      -0.00258266      -0.00355428
C      -12.28896807      -7.42896117       5.61086842      -0.00101703      -0.00380437      -0.00342774
C      -15.86819587      -6.53749759       6.45235736       0.00156703       0.00413595       0.00104443
C      -10.07701618      -6.52495257       6.44669123       0.00252769      -0.00498172      -0.00331402
C      -12.26685638      -5.65149961       7.26699781       0.00305937      -0.00375631      -0.00455130
O      -16.44901371      -5.68184267       7.20605742       0.00284558       0.00587551       0.00025779
C      -14.37659025      -6.53308913       6.45419335       0.00063397      -0.00092466      -0.00256501
H      -14.23629605      -8.10925324       4.99500632      -0.00415829      -0.00024262       0.00118099
O       -9.49008233      -5.71595702       7.22794971       0.00068544      -0.00507444      -0.00014611
O      -16.43652878      -7.39780900       5.69417944      -0.00067406       0.00425134       0.00330164
O       -9.47371779      -7.34934146       5.64914741      -0.00017464      -0.00561585      -0.00570222
H      -14.20175009      -4.95461974       7.91653809       0.00657231       0.00075555      -0.00038003
C      -13.69122572      -7.41782828       5.63215763      -0.00102087      -0.00157370      -0.00147298
C        6.48278456      -6.58918594      14.36626687      -0.00144414      -0.00121367       0.00134111
O        4.76600513      -8.29684114      14.21640914      -0.00101773      -0.00146858       0.00028459
H        4.90738262      -8.14896859      15.20068731      -0.00163053      -0.00158261       0.00029206
C        7.37986960      -5.74062042      12.27804261      -0.00069264      -0.00025535       0.00222330
H        8.00286164      -5.08561190      14.23528708      -0.00173517      -0.00121658       0.00259017
C        5.62254385      -7.45533147      13.61892732      -0.00092524      -0.00114736       0.00093468
C        6.55744405      -6.59071463      10.05426416      -0.00190283       0.00266782       0.00082992
C        6.46456319      -6.58462383      15.84242271      -0.00183440      -0.00146727       0.00115704
C        7.34838002      -5.74464748      13.66871211      -0.00129193      -0.00097285       0.00214350
O        7.38233546      -5.78625264       9.49665186      -0.00755546       0.00891854       0.00140700
C        6.53307460      -6.59142742      11.54638063      -0.00105619       0.00054500       0.00130798
H        5.00286813      -8.10010421      11.65918569       0.00017317      -0.00095160       0.00026045
O        7.24714008      -5.77835640      16.43609628      -0.00171803      -0.00192733       0.00151728
O        5.75198807      -7.39180154       9.46740115       0.00280780      -0.00204973       0.00068835
O        5.65533199      -7.39852090      16.43945896      -0.00216731      -0.00109090       0.00079843
H        8.06034658      -5.07785859      11.74695244      -0.00012351      -0.00027593       0.00272138
C        5.66161399      -7.43993114      12.21715712      -0.00048218      -0.00065086       0.00086660
C        6.49874699      11.57645419      -6.60861873       0.00320288      -0.01459439       0.00679538
O        4.85178696      11.71803299      -8.38473187       0.00063361       0.00012870      -0.00322080
H        4.99101555      10.73386126      -8.23161785      -0.00063675       0.00383884      -0.00031516
C        7.32830942      13.67006675      -5.70460411      -0.00228393      -0.00076494      -0.00241960
H        7.94652334      11.71452815      -5.03724383      -0.00168481       0.00145032      -0.00187066
C        5.66845833      12.31857473      -7.50688750       0.00002278       0.00365698      -0.00099302
C        6.51807918      15.88871319      -6.58533983      -0.00099693       0.00086481      -0.00017766
C        6.49424558      10.09852829      -6.61004328      -0.00868964       0.03427896      -0.00155066
C        7.31583162      12.27906387      -5.72091546       0.00017723      -0.00221843       0.00068758
O        7.28351463      16.46181849      -5.73490519      -0.00158170      -0.00008433       0.00086765
C        6.51377310      14.39707255      -6.59064812       0.00104134       0.00141996       0.00099352
H        5.05957185      14.27369824      -8.17240337      -0.00050693       0.00132481      -0.00185877
O        7.25921656       9.50684464      -5.78743252       0.00150413      -0.00962535       0.01212513
O        5.75324863      16.46438321      -7.43476048      -0.00060523       0.00074246      -0.00049769
O        5.70961466       9.50273744      -7.44851116      -0.00629103      -0.00471806      -0.00017737
H        7.96890687      14.20509047      -5.00637303       0.00041583       0.00196795       0.00092128
C        5.69277616      13.72078422      -7.48361399      -0.00039124      -0.00112784      -0.00156864
C        6.63254801       6.51925486      11.56073962       0.00102033       0.00237684       0.01830433
O        8.40307825       4.86615864      11.69706135       0.01149399      -0.00404434       0.00978637
H        8.26014489       5.02456297      10.71450936       0.00808491      -0.00797661      -0.01195453
C        5.72149234       7.33044271      13.65867275       0.00676902      -0.00323879       0.01321335
H        5.05480536       7.96148503      11.70862385       0.00576176      -0.00124959      -0.01495670
C        7.52406268       5.67958528      12.30022808       0.01542794      -0.00893093       0.02132414
C        6.59519042       6.50717351      15.87507642      -0.00249033      -0.00635097       0.00234769
C        6.64432450       6.52855820      10.08461068       0.00174020      -0.01225881      -0.02238791
C        5.73994393       7.32774646      12.26753858      -0.00300193       0.00612349       0.01174157
O        5.75762563       7.28985763      16.44513031       0.01381942      -0.03439451      -0.01274283
C        6.60531430       6.51020149      14.38262995       0.00037015       0.00174001       0.01280594
H        8.17848570       5.04704435      14.25241746      -0.00261171       0.00563360      -0.00306459
O        5.81790532       7.28672500       9.49200146      -0.02184913      -0.00218511      -0.00905883
O        7.42609634       5.72297414      16.45341112      -0.03640134       0.02965501      -0.01221969
O        7.49876214       5.76002494       9.48615551       0.02271434      -0.03426974      -0.00390512
H        5.02320421       7.96760717      14.19857511       0.00457201      -0.00203438      -0.01415429
C        7.49523718       5.68920175      13.70250957      -0.00278447       0.00707008       0.01740579
C       -6.54288756      11.61793179      -6.48866228       0.00062328       0.00006294      -0.00023100
O       -8.22610444      11.77392073      -4.74835206      -0.00201722       0.00097319      -0.00084474
H       -8.07969065      10.78879546      -4.88726902      -0.00099317       0.00136097       0.00031154
C       -5.69181025      13.70457577      -7.38925924       0.00050589      -0.00027085       0.00039636
H       -5.05461563      11.74389256      -8.02263137       0.00023239       0.00047942       0.00057768
C       -7.39685731      12.36766964      -5.61912341      -0.00003276       0.00019729      -0.00072860
C       -6.53053278      15.93059550      -6.55386856      -0.00288368       0.00061478       0.00134887
C       -6.54057655      10.14066992      -6.46842221       0.00298952       0.00467589      -0.00073249
C       -5.70386090      12.31367330      -7.36115858       0.00032165      -0.00014033       0.00024795
O       -5.70307702      16.49826133      -7.34793189       0.00021326      -0.00095553      -0.00245190
C       -6.53384616      14.43886324      -6.53568295       0.00015177       0.00041215      -0.00035837
H       -8.03642795      14.32786709      -4.99870211      -0.00073182       0.00043649       0.00018589
O       -5.75458075       9.54278614      -7.26684626       0.00120135      -0.00107670      -0.00093057
O       -7.35873286      16.51102665      -5.76972815      -0.00007948      -0.00210651      -0.00200381
O       -7.33907692       9.55013388      -5.63882519       0.00026604      -0.00215196       0.00594787
H       -5.03059605      14.23407994      -8.07235447       0.00096341       0.00060613       0.00035407
C       -7.38017989      13.76953807      -5.66111397      -0.00034614      -0.00018492       0.00023060
C      -14.43521793       6.51500940      -6.53776069      -0.01562449       0.00729758       0.00726765
O      -14.28846206       4.73331596      -8.17803553       0.01264943      -0.01173809      -0.01398871
H      -15.27283914       4.88998584      -8.04184855      -0.00860492      -0.00654759      -0.00076959
C      -12.34062483       7.41166981      -5.70110912      -0.00871942       0.00143857      -0.00099234
H      -14.29589988       8.08558177      -5.08620110      -0.00199270      -0.01536096      -0.01343948
C      -13.69069697       5.61521658      -7.36392216       0.00035503      -0.01306822      -0.01610112
C      -10.12059360       6.53067719      -6.51067798      -0.00104624       0.00422028       0.00753292
C      -15.91364425       6.50787543      -6.54794365       0.02210485      -0.00812978      -0.00235209
C      -13.73255084       7.40026667      -5.71686465      -0.00070591      -0.00511029      -0.00707577
O       -9.54946778       7.35954819      -5.72090635       0.00203801      -0.00099251       0.00193730
C      -11.61255402       6.52751331      -6.51763457      -0.00178680       0.01184333       0.00983189
H      -11.73748108       4.94840686      -7.97473578       0.00713170      -0.00236852      -0.00264589
O      -16.51367514       7.32796330      -5.78687268       0.01643936      -0.01381755      -0.01391065
O       -9.54383688       5.70296119      -7.29820830      -0.00113688      -0.00460830       0.00278467
O      -16.50359952       5.66369994      -7.33303420      -0.01756063      -0.01712987      -0.00080750
H      -11.80380827       8.10555058      -5.05669950      -0.00954787      -0.00209675      -0.00325006
C      -12.28885843       5.63700181      -7.34027859       0.01276951       0.00565596       0.00261605
C       -6.47610409      -6.52210358     -14.47744159       0.00145811      -0.00134180       0.00412040
O       -4.67445582      -8.13980309     -14.31867762       0.00223853      -0.00082558       0.00144431
H       -4.82163970      -8.00393791     -15.30445778       0.00128484      -0.00057091       0.00279376
C       -7.39620296      -5.68798803     -12.39231158       0.00160151      -0.00347715       0.00385457
H       -8.06159281      -5.08879436     -14.35439170      -0.00165178       0.00003558      -0.00305530
C       -5.57038493      -7.33659494     -13.72707664      -0.00095952       0.00120722       0.00225471
C       -6.52325400      -6.49034069     -10.16642431       0.02656758      -0.02063181      -0.03222894
C       -6.46539155      -6.53364693     -15.95483148       0.00104947      -0.00081082      -0.00285714
C       -7.37436972      -5.70925912     -13.78317056       0.00031657      -0.00169339       0.00085220
O       -7.37428794      -5.72405078      -9.59509912      -0.01887863       0.02079984       0.00924884
C       -6.50831313      -6.49335367     -11.65747804       0.00118501       0.00040272       0.00460829
H       -4.91144487      -7.93318145     -11.76683174      -0.00128170       0.00210132       0.00188113
O       -7.30066979      -5.79174418     -16.55616725      -0.00032410       0.00078624       0.00152990
O       -5.67734500      -7.25859872      -9.59013809      -0.00668906       0.00189803       0.01360612
O       -5.60413712      -7.30146080     -16.54145681       0.00275359      -0.00280249       0.00110296
H       -8.10054162      -5.04931990     -11.86292214      -0.00188255      -0.00088881      -0.00221108
C       -5.60344088      -7.30832030     -12.32536762       0.00179617      -0.00188378      -0.00188399
C       -6.49934161       6.54824403     -11.58870754      -0.00122004      -0.00061732       0.00207790
O       -8.29044687       4.91873115     -11.75584797       0.00073457      -0.00083692       0.00211751
H       -8.14148506       5.04791371     -10.76968349       0.00021489       0.00002932       0.00187432
C       -5.58276234       7.39384633     -13.67120987      -0.00106167      -0.00085434       0.00129869
H       -4.92766660       7.99750204     -11.70673566      -0.00158170      -0.00063994       0.00115557
C       -7.39636332       5.72741458     -12.34312195       0.00002123      -0.00059277       0.00074656
C       -6.43541786       6.57641558     -15.90067713       0.00037336      -0.00033336       0.00015207
C       -6.51065004       6.52966472     -10.11134989      -0.00028457       0.00034681       0.00078295
C       -5.60766692       7.37090824     -12.28013698      -0.00142290      -0.00070621       0.00150653
O       -5.62538562       7.38566124     -16.47137374       0.00046413      -0.00062459      -0.00024729
C       -6.45833428       6.57816433     -14.40938378      -0.00001960      -0.00061851       0.00040890
H       -8.03994611       5.12187503     -14.30585987       0.00108245      -0.00073060      -0.00000404
O       -5.68859164       7.28472933      -9.50537457      -0.00218033      -0.00131495       0.00035299
O       -7.23371298       5.75879677     -16.47688870       0.00023445      -0.00010850       0.00018143
O       -7.35763231       5.74382479      -9.52811089      -0.00206175      -0.00166141       0.00298353
H       -4.88437677       8.04095102     -14.19836540      -0.00096546      -0.00051691       0.00181989
C       -7.35731529       5.75450365     -13.74460923       0.00024451      -0.00084717       0.00086466
C      -11.63716889      -6.50645089      -6.52622027       0.00652118       0.00262414      -0.00178850
O      -11.79260313      -8.24108427      -4.83501891       0.00134236       0.00114107      -0.00131891
H      -10.80772597      -8.10014177      -4.97827514       0.00310660      -0.00146732       0.00038216
C      -13.72467101      -5.63658197      -7.40720398      -0.00152951       0.00039879       0.00065889
H      -11.76420731      -4.97643806      -8.01854003      -0.00252190       0.00080591      -0.00014558
C      -12.38546056      -7.38266128      -5.67796266      -0.00532381      -0.00194172       0.00116597
C      -15.94818983      -6.50947988      -6.59586606      -0.00036403      -0.00024907       0.00088031
C      -10.16068372      -6.51176352      -6.51346759      -0.03584646      -0.02981550       0.03182892
C      -12.33375959      -5.64461138      -7.37584052       0.00156114      -0.00169980       0.00238328
O      -16.52577702      -5.70758881      -7.41033044       0.00058964       0.00025191       0.00188115
C      -14.45736199      -6.49941299      -6.57350705      -0.00085393       0.00049971      -0.00009201
H      -14.34457387      -8.03017762      -5.06458634       0.00251994      -0.00059572      -0.00008800
O       -9.56245842      -5.69266650      -7.27783700       0.00720246       0.02103177      -0.01697957
O      -16.52022498      -7.32477800      -5.79255378      -0.00023592      -0.00161456       0.00088117
O       -9.56969963      -7.34968354      -5.72436783       0.01090515       0.00475113      -0.00820758
H      -14.25522657      -4.96303254      -8.07722251      -0.00296229       0.00213848       0.00001469
C      -13.78693927      -7.36116537      -5.71483002      -0.00102951       0.00020196      -0.00075375
C        6.56285789      -1.45709039      -6.55846036       0.00153475       0.00032255      -0.00216589
O        8.06660912      -1.31395357      -8.45749324       0.00084157       0.00507231      -0.00069998
H        7.93162841      -2.29788311      -8.29972661       0.00349277       0.00424544      -0.00403571
C        5.81070224       0.63786308      -5.59025190       0.00097768       0.00040577       0.00076867
H        5.23357093      -1.31758553      -4.88565741       0.00360748      -0.00006658      -0.00220513
C        7.32709182      -0.71422464      -7.51288199       0.00603262       0.00369545      -0.00760675
C        6.56375092       2.85692282      -6.52261522       0.00778114       0.02794282      -0.00595862
C        6.55532627      -2.93455611      -6.57220680       0.00282091       0.00255690      -0.00461765
C        5.81599246      -0.75341698      -5.61125762       0.00264849      -0.00225285      -0.00186485
O        5.82788611       3.43201507      -5.64748919      -0.00022138      -0.00221216      -0.01243958
C        6.56433546       1.36529197      -6.52874076       0.00222475      -0.00580680       0.00111659
H        7.90332973       1.23961382      -8.20917300       0.00047216       0.00372728      -0.00025009
O        5.85211218      -3.53019899      -5.69997687       0.00248072       0.00188629      -0.00520358
O        7.30277971       3.43228544      -7.39609890       0.00008784      -0.00643272       0.01839612
O        7.26928535      -3.52980465      -7.47507931       0.00299394       0.00157807      -0.00418039
H        5.22236846       1.17312225      -4.84737911       0.00247916       0.00068482      -0.00147271
C        7.31633167       0.68802681      -7.47961064       0.00274524      -0.00149815      -0.00245380
C       -6.52346755      -1.41551602      -6.54917623      -0.04662724       0.01790033      -0.05055352
O       -8.10561182      -1.25379119      -8.38643841       0.01359831      -0.02803138       0.01935553
H       -7.99450800      -2.23890395      -8.21680152      -0.00963034       0.00678519      -0.01083294
C       -5.71110433       0.67254385      -5.61674035       0.00543754      -0.01771658       0.00297078
H       -5.12507157      -1.28941813      -4.93448387       0.00498746      -0.00036944       0.00649847
C       -7.31579115      -0.66469113      -7.47624780      -0.00015335       0.01404462      -0.00190217
C       -6.47934765       2.89766815      -6.51715117       0.00089731       0.00423385       0.00013134
C       -6.53690350      -2.89261912      -6.56447875       0.03451720      -0.00994670       0.03864534
C       -5.73030130      -0.71871393      -5.63546969      -0.00917832      -0.01652734      -0.01373689
O       -5.72894748       3.46184360      -5.64775376      -0.00057053       0.00877633       0.00044173
C       -6.48954762       1.40628380      -6.52915268       0.00581527       0.00190293       0.00685805
H       -7.88711056       1.29543019      -8.16183131       0.00179054      -0.00314765       0.00233550
O       -5.76628184      -3.49946201      -5.75899514      -0.01627399       0.09659475      -0.01737093
O       -7.22267707       3.48179398      -7.37999153      -0.00461508      -0.01086868       0.00810892
O       -7.33529264      -3.47714620      -7.39937298      -0.04059977      -0.05676933      -0.04436042
H       -5.09195268       1.20227242      -4.89554107       0.00177543       0.00381719       0.00034162
C       -7.28260647       0.73709768      -7.45167042       0.00403602       0.00554282       0.00265444
C        6.54336843       6.46646148      -1.46195436       0.00227404       0.00398029      -0.01602982
O        4.71150530       4.88450205      -1.29688754      -0.00224185       0.00010054      -0.00044008
H        4.85748314       5.01858371      -2.28291193      -0.00217172      -0.00199040       0.00187574
C        7.50897834       7.25637600       0.62052972      -0.00296272      -0.00290237      -0.00170780
H        8.16662875       7.85774676      -1.34340255      -0.00054992      -0.00132723      -0.00243978
C        5.62785344       5.66666592      -0.70798935      -0.00158193      -0.00038132       0.00292902
C        6.62595469       6.47435790       2.85026264      -0.00099139       0.00148894      -0.00175342
C        6.51324149       6.47089865      -2.94011198      -0.00707484      -0.00439761       0.02814936
C        7.47020511       7.24918275      -0.77034392      -0.00050816      -0.00054061      -0.00466285
O        7.50681696       7.20732639       3.42039460       0.00057458      -0.00124563      -0.00148730
C        6.60522253       6.47225348       1.35880933      -0.00003282       0.00079647      -0.00060018
H        4.97082642       5.07532589       1.25502939       0.00005067       0.00109172      -0.00013474
O        7.33962604       7.22292287      -3.54283251       0.00174907       0.00869311      -0.00976323
O        5.75391613       5.73827603       3.42930589      -0.00346408       0.00462901      -0.00068471
O        5.64671591       5.70839523      -3.52581450      -0.00028508      -0.00367986      -0.00297022
H        8.23736360       7.86959595       1.14746789       0.00154957       0.00030190      -0.00110542
C        5.67366967       5.68547035       0.69375954      -0.00122500      -0.00032239      -0.00268099
C        6.59768694      -1.43822270       6.50904172       0.00136413       0.00013094       0.00174534
O        8.24467093      -1.31296443       8.28723374      -0.00172764       0.00221069       0.00308960
H        8.09775742      -2.29526848       8.13108356       0.00389350       0.00102029       0.00134629
C        5.77672362       0.66429079       5.61945752       0.00035565       0.00156300       0.00201614
H        5.15155653      -1.28315557       4.93685384      -0.00012114      -0.00312182       0.00182624
C        7.43223304      -0.70381051       7.41093581       0.00086332       0.00347163       0.00365716
C        6.59499607       2.87497675       6.50668148       0.00016088       0.00100011      -0.00000596
C        6.59415753      -2.91461972       6.50491132       0.00268485      -0.00226831       0.00203737
C        5.78414917      -0.72677986       5.62530541       0.00034206      -0.00072347       0.00211867
O        5.81684564       3.44849612       5.66846918      -0.00044602      -0.00084913       0.00258773
C        6.59537370       1.38337997       6.50829968      -0.00074094       0.00213707       0.00075234
H        8.05496177       1.24485255       8.08415130      -0.00210497       0.00050371       0.00027494
O        5.82716439      -3.50056339       5.67803427      -0.00326715      -0.00091142       0.00579522
O        7.37297662       3.45177334       7.34520408      -0.00266673      -0.00240899      -0.00797955
O        7.37122478      -3.52035058       7.34333821       0.00994879       0.00163746      -0.00127710
H        5.13656210       1.20627496       4.92604999      -0.00079825      -0.00264058      -0.00042354
C        7.41658403       0.69861387       7.39465260      -0.00135225       0.00175453       0.00129384
C        6.55123203      -6.59746539      -1.47353080      -0.00054845       0.00004370       0.00109851
O        8.34408065      -8.22602543      -1.33320669      -0.00099766      -0.00069155       0.00193606
H        8.18401642      -8.09313720      -2.31715533      -0.00045939      -0.00071132       0.00177893
C        5.65147159      -5.76349668       0.62015593      -0.00032247       0.00043010       0.00135195
H        4.97266976      -5.15805442      -1.33547642      -0.00026659       0.00024997       0.00076956
C        7.45828756      -7.41850299      -0.73192309      -0.00088553      -0.00023034       0.00172286
C        6.54865187      -6.55732302       2.83780008       0.00106612       0.00216423       0.00112432
C        6.55241698      -6.60118323      -2.95112011       0.00010114       0.00032833       0.00083313
C        5.66178182      -5.78251684      -0.77079556      -0.00040390       0.00019924       0.00119492
O        5.72689404      -5.76161090       3.41378297       0.00286323       0.00367098       0.00157419