448
Lattice="26.06594864374763 0.0 0.0 0.0 26.06594864374763 0.0 0.0 0.0 26.06594864374763" Properties=species:S:1:pos:R:3:forces:R:3 energy=-3064.904905519479 stress="8.58438978733507e-06 1.1853711227345317e-05 9.48301747349041e-06 1.1853711227345317e-05 4.978979836097125e-06 -3.853463187753542e-06 9.48301747349041e-06 -3.853463187753542e-06 1.5445665852322063e-06" pbc="T T T"
C        6.58904001      14.40643275       6.39025857       0.00063290      -0.00089665      -0.00078655
O        8.33604494      14.26510692       4.71205915       0.00044478      -0.00275244       0.00111999
H        8.18666728      15.24929319       4.85602147       0.00045433      -0.00189109      -0.00099812
C        5.71482091      12.31395321       7.25178264      -0.00119021      -0.00096890      -0.00016463
H        5.04956205      14.26973840       7.87181347      -0.00058247      -0.00075210       0.00010480
C        7.47387307      13.66472497       5.54520158       0.00066881      -0.00186271      -0.00016245
C        6.58760465      10.09536520       6.43370979       0.00054420      -0.00166211       0.00076366
C        6.58919196      15.88340169       6.38455325       0.00308285       0.00324084      -0.00384658
C        5.72231301      13.70463396       7.23019178       0.00032675      -0.00034445      -0.00070470
O        5.76014684       9.52341723       7.22290955       0.00232814      -0.00199896       0.00279959
C        6.58505390      11.58720385       6.42034248      -0.00021324      -0.00005257       0.00003230
H        8.13200278      11.70970168       4.92870659       0.00010167      -0.00071014       0.00006797
O        5.77477769      16.47528006       7.15678541       0.00063090       0.00003561       0.00097263
O        7.42279179       9.52286981       5.65049698       0.00015332      -0.00028007      -0.00098483
O        7.42095296      16.47861472       5.59161655      -0.00366651      -0.00207609      -0.00079203
H        5.03588351      11.77846410       7.91231857      -0.00208024      -0.00145293      -0.00076061
C        7.45546806      12.26274722       5.57492410       0.00009571      -0.00179602      -0.00001901
C      -14.33889576       6.50232694       6.47367474      -0.00009236       0.00180944      -0.00072118
O      -14.18967148       8.38408809       4.94840524       0.00064431       0.00095125      -0.00175356
H      -15.17383644       8.20870985       5.05609694       0.00046593       0.00009599      -0.00325072
C      -12.24776988       5.55957068       7.26679906      -0.00021708       0.00109071      -0.00119934
H      -14.20546089       4.84744034       7.82614430      -0.00004758       0.00177432      -0.00128172
C      -13.59290493       7.45563008       5.71043826       0.00040330       0.00140271      -0.00139094
C      -10.02598240       6.50039601       6.53171592       0.00013221       0.00106773      -0.00052225
C      -15.81551200       6.50585189       6.46079762       0.00109539       0.00312490       0.00016632
C      -13.63899203       5.57035512       7.24265878      -0.00046517       0.00171157      -0.00124441
O       -9.44989579       5.62718029       7.26845041      -0.00024254       0.00144292       0.00052490
C      -11.51734817       6.49683135       6.51488083      -0.00011125       0.00119284      -0.00125732
H      -11.63639829       8.16635130       5.16175473       0.00043594       0.00066100      -0.00179793
O      -16.41345918       5.66636397       7.20433740      -0.00009595       0.00804364       0.00451448
O       -9.45057471       7.38187704       5.80154549      -0.00017033       0.00067026      -0.00090821
O      -16.40913846       7.36339958       5.69514683       0.00042922      -0.00090639      -0.00337492
H      -11.71469688       4.82604711       7.86863779       0.00015149       0.00054727      -0.00090453
C      -12.19105173       7.43658487       5.74565090       0.00008551       0.00123810      -0.00167209
C       -6.36716275      11.64290050       6.51921897       0.00058878      -0.00125997       0.00086374
O       -4.71457332      11.80999649       8.28820127      -0.00086178      -0.00074055       0.00096707
H       -4.84894693      10.82421278       8.14559831      -0.00003509      -0.00161175       0.00146912
C       -7.22440804      13.72392830       5.61141477      -0.00319475      -0.00513876      -0.00372198
H       -7.82353681      11.75935922       4.95327428       0.00310060       0.00202650       0.00171174
C       -5.54054885      12.39806139       7.41015348       0.00083001      -0.00055639       0.00238128
C       -6.43611460      15.95567278       6.48137707      -0.01495630       0.01993094      -0.01707281
C       -6.35792517      10.16662595       6.53806314       0.00007299       0.00104252       0.00033057
C       -7.19573317      12.33312627       5.63201310       0.00063074      -0.00179798       0.00029124
O       -7.20393752      16.52122087       5.62889434       0.00950900      -0.01569384       0.00778209
C       -6.41468462      14.46349939       6.49081411      -0.00026597      -0.00269332      -0.00380205
H       -4.94935947      14.36259987       8.06382823       0.00110829      -0.00121425       0.00306473
O       -7.12437855       9.56488550       5.72245824       0.00092389      -0.00033696       0.00113975
O       -5.67876471      16.53684913       7.33387726       0.00580261      -0.01204910       0.01146225
O       -5.57266834       9.57786911       7.38113046      -0.00044969      -0.00040628       0.00010864
H       -7.87468049      14.24958719       4.91499399       0.00118289       0.00100762      -0.00030290
C       -5.58004873      13.79961862       7.38086253      -0.00301595       0.00276240      -0.00146928
C      -11.55386068      -6.52671253       6.44977749      -0.00604507       0.04768049       0.04562368
O      -11.70134982      -4.75528080       8.10580252       0.02015936      -0.00796423      -0.00940454
H      -10.71775557      -4.91132759       7.96788009       0.01702151       0.01434456       0.01418480
C      -13.65047105      -7.42641201       5.62139602       0.03400769      -0.01014775      -0.00851253
H      -11.69389927      -8.08943343       4.99295857      -0.00653960       0.00333940       0.00378258
C      -12.29714411      -5.63262008       7.28463490      -0.02563496       0.01203709       0.00792751
C      -15.86766140      -6.55313964       6.44090463      -0.00156436       0.00259421      -0.00332157
C      -10.07594807      -6.51306273       6.45688231       0.00260601      -0.02242955      -0.01775697
C      -12.25872587      -7.41045437       5.62874524       0.03327360       0.02534632       0.02260157
O      -16.44003987      -7.41325049       5.68623609       0.00085690       0.00301225       0.00194617
C      -14.37629098      -6.54466963       6.44174312      -0.00139921      -0.01710902      -0.01559510
H      -14.25127301      -4.96743617       7.89974668       0.00434385       0.00072451      -0.00012356
O       -9.47712526      -7.31561850       5.67772601      -0.04690815      -0.00092216      -0.00068045
O      -16.44439118      -5.69641246       7.19711145      -0.00094017       0.00533047       0.00286284
O       -9.48227335      -5.68473362       7.25682229      -0.00504525       0.02695214       0.03063961
H      -14.18616532      -8.12248532       4.97880986      -0.00481636       0.00166758       0.00328768
C      -13.69896943      -5.65419298       7.26361817      -0.02328977      -0.01001373      -0.01001213
C        6.48121692      -6.59062911      14.36595952       0.00033717      -0.00093493       0.00216936
O        4.76554363      -8.29769771      14.21607675      -0.00000714      -0.00122609      -0.00544345
H        4.90729448      -8.14882044      15.20083878      -0.00396779      -0.00239154      -0.00529549
C        7.37942502      -5.74069648      12.27849148      -0.00097180       0.00024425       0.00191723
H        8.00077453      -5.08721467      14.23725517      -0.00201544      -0.00186377       0.00107166
C        5.62160512      -7.45630669      13.61833574       0.00012560      -0.00047955      -0.00220354
C        6.55740107      -6.58889827      10.05339543      -0.00455667      -0.00194689       0.00347108
C        6.46361069      -6.58683735      15.84380821      -0.00453475      -0.00557626      -0.01296993
C        7.34703543      -5.74569576      13.66917830      -0.00181263      -0.00163868       0.00227940
O        7.37949885      -5.78218243       9.49491491      -0.00197643       0.00662129       0.00484424
C        6.53273298      -6.59087545      11.54579990      -0.00032197       0.00127475       0.00055600
H        5.00293329      -8.10063799      11.65843437       0.00106491       0.00011288      -0.00259370
O        7.24816623      -5.78521555      16.43631696      -0.00109657      -0.00661380      -0.00045898
O        5.75371132      -7.39241099       9.46734166       0.00232823      -0.00128711      -0.00070754
O        5.65053250      -7.40061209      16.43738947       0.00187430       0.00582903       0.00132707
H        8.06034674      -5.07773497      11.74835484       0.00013370       0.00103022       0.00115703
C        5.66144974      -7.44014671      12.21623752      -0.00013795       0.00011333      -0.00100553
C        6.49802118      11.57694733      -6.60777304      -0.00333409       0.00544792      -0.00100086
O        4.85256396      11.71888222      -8.38583086       0.00180788       0.00071089      -0.00095811
H        4.99080886      10.73477080      -8.23176168      -0.00036045       0.00142311      -0.00067077
C        7.32819401      13.67035362      -5.70468734       0.00007732       0.00227510       0.00052015
H        7.94645423      11.71481435      -5.03721457       0.00016788       0.00033434       0.00095615
C        5.66849995      12.31920801      -7.50710913      -0.00034890       0.00222957      -0.00041840
C        6.51760629      15.88897211      -6.58504427      -0.00111556      -0.00047747       0.00065217
C        6.49232709      10.10026681      -6.60854598      -0.00223781      -0.00447437       0.00258084
C        7.31570896      12.27940149      -5.72062712      -0.00028441       0.00304316       0.00076360
O        7.28226586      16.46218890      -5.73394869      -0.00207372       0.00150489       0.00043821
C        6.51378133      14.39741394      -6.59074440      -0.00115092      -0.00014662      -0.00056106
H        5.05972176      14.27411477      -8.17305494       0.00181325       0.00057403       0.00005843
O        7.25654083       9.50784778      -5.78522676      -0.00129283       0.00128728       0.00591909
O        5.75256650      16.46432638      -7.43443531      -0.00008914       0.00110167       0.00052902
O        5.70797160       9.50393151      -7.44716626      -0.00434590       0.00217958      -0.00064258
H        7.96868285      14.20560153      -5.00642400      -0.00035928       0.00037987      -0.00028666
C        5.69288547      13.72126731      -7.48404535       0.00030898       0.00160598      -0.00022560
C        6.63544820       6.51776097      11.56137407       0.00687239      -0.00620365      -0.00800422
O        8.40732530       4.86570175      11.70006260       0.00239970       0.00383804       0.00590761
H        8.26373129       5.02094445      10.71647388       0.00649651      -0.00611116       0.01276824
C        5.72261365       7.33095416      13.65786860      -0.00216342       0.00427604      -0.01374431
H        5.05840390       7.96021116      11.70462174       0.00862615      -0.00430132      -0.00087519
C        7.52756021       5.67910410      12.30275041      -0.00091725       0.00465770      -0.01031772
C        6.59152252       6.50702933      15.87421456      -0.00598400       0.00026647       0.01585614
C        6.64534540       6.52206053      10.08320264       0.00234395      -0.01114125       0.01757344
C        5.74239887       7.32739125      12.26660106       0.00890539      -0.00529265      -0.01223866
O        5.75130321       7.28521001      16.44487645      -0.02229147       0.00489853       0.00128830
C        6.60484511       6.51113423      14.38313164       0.00069964      -0.00059788      -0.00731973
H        8.17898015       5.04841484      14.25481757       0.00471521      -0.00006932       0.01120719
O        5.81609816       7.27771040       9.49035881       0.01091924      -0.02546076      -0.00098327
O        7.42313786       5.72553205      16.45298649       0.00828881      -0.00582415       0.00251993
O        7.50043050       5.75185582       9.48671291      -0.01098140      -0.00012752       0.00201033
H        5.02342776       7.96854240      14.19517640      -0.00295841       0.00491190      -0.00118857
C        7.49631510       5.69044348      13.70486270       0.00580548      -0.00184370      -0.00711093
C       -6.54268752      11.61806433      -6.48850253       0.00027407       0.00009583       0.00073204
O       -8.22697821      11.77428546      -4.74898797      -0.00126352       0.00018036      -0.00134117
H       -8.08006648      10.78918174      -4.88711827      -0.00030225       0.00026695       0.00021320
C       -5.69158968      13.70463782      -7.38912374       0.00010009       0.00047951       0.00027942
H       -5.05435848      11.74400253      -8.02243810       0.00062862      -0.00007209       0.00034521
C       -7.39704672      12.36780405      -5.61930210      -0.00036911       0.00047204      -0.00026963
C       -6.53084691      15.93054697      -6.55420871      -0.00009692      -0.00007763      -0.00050806
C       -6.53997425      10.14087021      -6.46786007       0.00075409      -0.00030057       0.00117675
C       -5.70364503      12.31375276      -7.36101301       0.00029511       0.00029024       0.00045630
O       -5.70345610      16.49811887      -7.34844520      -0.00069171       0.00067026       0.00001443
C       -6.53392531      14.43888104      -6.53580238      -0.00033466       0.00012400      -0.00019342
H       -8.03663265      14.32796618      -4.99881352      -0.00016533       0.00008824      -0.00065632
O       -5.75452700       9.54281208      -7.26675970       0.00003652       0.00007574       0.00041197
O       -7.35909155      16.51095379      -5.77013566       0.00011664       0.00052935      -0.00036399
O       -7.33769668       9.55036569      -5.63731751       0.00204350       0.00046891       0.00201596
H       -5.03022413      14.23422674      -8.07203481       0.00057488       0.00001670       0.00052728
C       -7.38029865      13.76964123      -5.66119405      -0.00028310       0.00034221      -0.00043171
C      -14.43470209       6.51194208      -6.54038578       0.00713146      -0.01272658      -0.01167983
O      -14.28611801       4.73065135      -8.18207005       0.00420653       0.00221626       0.00125710
H      -15.27119124       4.88486916      -8.04351972       0.00848040      -0.00904949      -0.00541508
C      -12.34228512       7.41181799      -5.70197229      -0.00103685      -0.00208874      -0.00292656
H      -14.29911810       8.08140973      -5.08998558      -0.00711218       0.00047818       0.00003810
C      -13.68907593       5.61276951      -7.36752266       0.00525299      -0.00217622      -0.00286049
C      -10.12073231       6.53110739      -6.50871247      -0.00006596       0.00123668       0.00325068
C      -15.91186790       6.50401583      -6.55008833      -0.00522527      -0.00608029      -0.00425227
C      -13.73363188       7.39787500      -5.71965706      -0.00453315      -0.00485994      -0.00490548
O       -9.54932324       7.35992305      -5.71923643       0.00047872       0.00134999       0.00320347
C      -11.61264673       6.52845474      -6.51726666       0.00025447      -0.00596379      -0.00608580
H      -11.73360670       4.94881638      -7.97490108       0.00264209       0.00450582       0.00220776
O      -16.51262568       7.32461496      -5.79025873      -0.00217943      -0.00226591      -0.00263220
O       -9.54419006       5.70221369      -7.29539737      -0.00011477       0.00011356       0.00511757
O      -16.50190086       5.65871860      -7.33385338       0.00275716      -0.01145981      -0.00563515
H      -11.80773366       8.10631939      -5.05684540      -0.00281009       0.00315270       0.00096574
C      -12.28696269       5.63713126      -7.34137865       0.00076516      -0.00221264      -0.00338008
C       -6.47659796      -6.52183537     -14.47798645      -0.00145536      -0.00133493      -0.00447788
O       -4.67363157      -8.14000818     -14.31794233      -0.00060783       0.00081222      -0.00142323
H       -4.81970655      -8.00530205     -15.30329506       0.00030512       0.00158187      -0.00135333
C       -7.39595392      -5.68892027     -12.39244669      -0.00280629       0.00138097      -0.00176872
H       -8.06274406      -5.08855513     -14.35421364       0.00146326      -0.00354184       0.00391494
C       -5.57042601      -7.33636002     -13.72725261       0.00128451      -0.00077306       0.00273814
C       -6.52302104      -6.49001348     -10.16630840      -0.00049999       0.00058580       0.00612943
C       -6.46642459      -6.53386853     -15.95432413       0.01699204      -0.01842271       0.02654938
C       -7.37500328      -5.70935795     -13.78345418       0.00208370      -0.00323333      -0.00220298
O       -7.37392737      -5.72241914      -9.59470078       0.00050023       0.00274051      -0.00076739
C       -6.50780327      -6.49344105     -11.65736451      -0.00171316       0.00127788       0.00103086
H       -4.91137365      -7.93282290     -11.76657940       0.00187456      -0.00080770      -0.00027093
O       -7.30535248      -5.79318842     -16.55622457      -0.00489232       0.00391136      -0.01155722
O       -5.67899096      -7.25853415      -9.58777773       0.00109548      -0.00270955       0.00110483
O       -5.60517091      -7.29923361     -16.54283221      -0.00546053       0.00824703      -0.01049466
H       -8.10074617      -5.05052372     -11.86361239      -0.00385731       0.00133234       0.00350767
C       -5.60317418      -7.30834660     -12.32572901      -0.00020159       0.00085095       0.00138507
C       -6.49993149       6.54791411     -11.58805325      -0.00095055      -0.00064451       0.00108267
O       -8.29033482       4.91810922     -11.75512347      -0.00005297      -0.00118575       0.00083859
H       -8.14142647       5.04776335     -10.76893677      -0.00028541      -0.00092071       0.00074966
C       -5.58314732       7.39355866     -13.67054782      -0.00055612      -0.00039980       0.00123283
H       -4.92840767       7.99728796     -11.70600628      -0.00135024      -0.00027300       0.00137161
C       -7.39655033       5.72690567     -12.34265910      -0.00030329      -0.00090337       0.00085942
C       -6.43528651       6.57617970     -15.90041086       0.00007539      -0.00060277       0.00086981
C       -6.51138101       6.52926667     -10.11070121      -0.00113543      -0.00063417       0.00142563
C       -5.60828304       7.37062147     -12.27945380      -0.00100332      -0.00045511       0.00120029
O       -5.62516520       7.38531706     -16.47114627       0.00034062      -0.00067375       0.00106817
C       -6.45838805       6.57780358     -14.40900513      -0.00016709      -0.00070383       0.00095896
H       -8.03958899       5.12128041     -14.30569660       0.00030054      -0.00142397       0.00068192
O       -5.68931613       7.28441885      -9.50491209      -0.00098955      -0.00035404       0.00112987
O       -7.23364389       5.75866688     -16.47669454      -0.00001657      -0.00042531       0.00067532
O       -7.35825114       5.74341537      -9.52714789      -0.00089993      -0.00055480       0.00153205
H       -4.88475228       8.04080015     -14.19749256      -0.00063449      -0.00021601       0.00142888
C       -7.35725843       5.75399190     -13.74420294      -0.00001258      -0.00103804       0.00075729
C      -11.63660074      -6.50650996      -6.52571646      -0.00174951      -0.00154792       0.00189876
O      -11.79136505      -8.24137018      -4.83494040       0.00282904      -0.00018165      -0.00039959
H      -10.80645280      -8.10055705      -4.97851034       0.00198067      -0.00036502      -0.00087330
C      -13.72452030      -5.63693501      -7.40620086      -0.00161802      -0.00179083       0.00194728
H      -11.76484219      -4.97628375      -8.01829618       0.00165327       0.00099200       0.00021586
C      -12.38477996      -7.38314452      -5.67752804       0.00097415       0.00018703       0.00022802
C      -15.94878122      -6.51183882      -6.59555562       0.01166230      -0.00451036       0.00325449
C      -10.16056728      -6.51208644      -6.51268291       0.00724789       0.00087736      -0.00048450
C      -12.33357988      -5.64470666      -7.37524772      -0.00150417       0.00019351       0.00085018
O      -16.52432512      -5.71424071      -7.41202823      -0.00037394      -0.00533059       0.00021724
C      -14.45685183      -6.50040274      -6.57261340       0.00345956      -0.00262007       0.00049574
H      -14.34381231      -8.03115177      -5.06398897       0.00413265      -0.00021240      -0.00018662
O       -9.56190681      -5.69216415      -7.27711582       0.00057897       0.00141194       0.00037058
O      -16.51680305      -7.32710275      -5.78843364       0.00190509       0.00282597       0.00083905
O       -9.56805716      -7.35013437      -5.72506700       0.00179842      -0.00370662       0.00257673
H      -14.25634105      -4.96362246      -8.07563720       0.00120023      -0.00105925       0.00256004
C      -13.78634846      -7.36192479      -5.71417640       0.00265638      -0.00109938       0.00062807
C        6.55695435      -1.45648369      -6.55024416       0.00142477      -0.00049468      -0.00262464
O        5.05361555      -1.32593218      -4.65228191      -0.01396297       0.00770331       0.02252716
H        5.18195203      -2.30909503      -4.82240749      -0.00607350       0.00682213       0.00246114
C        7.32348742       0.64529596      -7.49252335      -0.00276416       0.00673393       0.00825757
H        7.88629652      -1.30314378      -8.22510780      -0.01201550      -0.00999118       0.01431124
C        5.79802980      -0.71930692      -5.58804429      -0.00453017      -0.00262918       0.01244923
C        6.58272595       2.85912902      -6.53558701       0.00296872      -0.00218155      -0.00767596
C        6.54699753      -2.93431940      -6.55528539      -0.01472574       0.01188375       0.00967985
C        7.30811504      -0.74646343      -7.49012024      -0.00121784       0.00817432       0.00502481
O        7.32693064       3.43673365      -7.40168606       0.00588884       0.00387555      -0.00182695
C        6.57703140       1.36672795      -6.54338422      -0.00391590       0.00186967       0.00549601
H        5.23307285       1.22703273      -4.86630445       0.00432370       0.01493055      -0.00211880
O        7.24430413      -3.52330707      -7.43600223      -0.01381818      -0.00180281       0.00307570
O        5.84283303       3.43088911      -5.66125835      -0.00493001      -0.00159942      -0.01356769
O        5.82605361      -3.53624876      -5.66120013      -0.00325577       0.00331587      -0.01164046
H        7.91315592       1.18851571      -8.22864647       0.00311089      -0.01388736      -0.00059989
C        5.81846715       0.68301089      -5.60278847      -0.00120482      -0.00144882       0.00739818
C       -6.52860102      -1.41447307      -6.55376115       0.00664255      -0.00668747       0.00738260
O       -8.10783262      -1.25497720      -8.38787445      -0.00965117       0.00449242      -0.00977482
H       -7.99705101      -2.23970756      -8.21930535      -0.00337595      -0.00167712      -0.00286124
C       -5.71097745       0.67060894      -5.61790371      -0.00121814      -0.00340692      -0.00233250
H       -5.12783467      -1.29116849      -4.93771763      -0.00689032      -0.00022565      -0.00835164
C       -7.31869238      -0.66328600      -7.47937182      -0.00270902       0.00222397      -0.00198938
C       -6.47960783       2.89768444      -6.51589693      -0.00219707      -0.00062925       0.00055988
C       -6.53880631      -2.89192389      -6.56640181      -0.00669180       0.00531513      -0.00821867
C       -5.73317519      -0.72043268      -5.63920847      -0.00020822      -0.00057760      -0.00031277
O       -5.72858507       3.46258731      -5.64751123       0.00031865      -0.00230067      -0.00088864
C       -6.48921827       1.40613734      -6.52947367       0.00367306       0.00024787       0.00421125
H       -7.88696979       1.29783613      -8.16181305      -0.00406355       0.00382786      -0.00550262
O       -5.76583564      -3.49191851      -5.75925694      -0.00437352       0.00259755      -0.00553151
O       -7.22558571       3.48102345      -7.37688437      -0.00478379       0.00170216       0.00388529
O       -7.33631652      -3.48057752      -7.40128221       0.00222937      -0.00412063       0.00156518
H       -5.09124655       1.19935971      -4.89599332      -0.00304070      -0.00458919      -0.00677732
C       -7.28291156       0.73833360      -7.45271158      -0.00081290       0.00498492      -0.00054434
C        6.54246668       6.46648466      -1.46277220      -0.00260063      -0.00183855       0.00359706
O        4.71052854       4.88457451      -1.29685011      -0.00233065       0.00047293      -0.00134208
H        4.85672160       5.01822736      -2.28285275      -0.00113819      -0.00186007      -0.00031149
C        7.50880537       7.25610125       0.61938987       0.00026945       0.00018739      -0.00110086
H        8.16644223       7.85718410      -1.34471983      -0.00086120      -0.00115885      -0.00249367
C        5.62711361       5.66673266      -0.70826404      -0.00203247      -0.00024035      -0.00012979
C        6.62543508       6.47508072       2.84942457      -0.00083016       0.00118909      -0.00167707
C        6.51201910       6.47000527      -2.93985751      -0.00044961      -0.00088543      -0.00611877
C        7.46986291       7.24892543      -0.77152735      -0.00024239      -0.00013781       0.00052858
O        7.50728867       7.20691688       3.41940698       0.00078330      -0.00036131      -0.00184287
C        6.60494628       6.47247266       1.35804157      -0.00089555       0.00022107      -0.00243422
H        4.97052053       5.07563449       1.25490906      -0.00048754       0.00083701      -0.00056445
O        7.33707683       7.22386186      -3.54273608      -0.00076750       0.00381423      -0.00101817
O        5.75215132       5.74051972       3.42857287      -0.00254642       0.00350849      -0.00100918
O        5.64769025       5.70541389      -3.52652991       0.00031013      -0.00629680       0.00062046
H        8.23751687       7.86916549       1.14627429      -0.00044507      -0.00141308      -0.00318926
C        5.67324266       5.68559534       0.69330167      -0.00098585       0.00047638      -0.00011971
C        6.59855724      -1.43862522       6.51038903       0.00141912      -0.00038381       0.00158130
O        8.24425372      -1.31197864       8.28903229      -0.00036562       0.00051571       0.00448297
H        8.09908225      -2.29439857       8.13162554       0.00389427       0.00175527       0.00068517
C        5.77651370       0.66365506       5.62000285      -0.00074571      -0.00385803       0.00065436
H        5.15187325      -1.28429783       4.93827388       0.00209442      -0.00232076       0.00439788
C        7.43216615      -0.70313984       7.41220717      -0.00058525      -0.00146080       0.00179824
C        6.59446791       2.87498446       6.50588679      -0.00082446       0.00171008      -0.00193790
C        6.59672966      -2.91555618       6.50638063       0.00108962       0.00535999      -0.00151860
C        5.78450459      -0.72759892       5.62659226       0.00027828      -0.00202075       0.00206121
O        5.81546163       3.44846335       5.66848527      -0.00364567      -0.00003644      -0.00154350
C        6.59478475       1.38351611       6.50849074      -0.00112942      -0.00164897       0.00004021
H        8.05414858       1.24571027       8.08471358      -0.00113594       0.00296037       0.00161858
O        5.82655002      -3.50095105       5.68204022       0.00106197      -0.00019300       0.00819425
O        7.37366304       3.45193784       7.34292932       0.00278431       0.00067716      -0.00344382
O        7.37762200      -3.52133625       7.34122191       0.01171690      -0.00051322      -0.00281350
H        5.13626849       1.20501958       4.92609570       0.00002820      -0.00361111       0.00108537
C        7.41594157       0.69927850       7.39532472      -0.00059949      -0.00102208       0.00169468
C        6.55006945      -6.59689273      -1.47372687       0.00096674       0.00007428       0.00134348
O        8.34355815      -8.22626183      -1.33256505      -0.00056792      -0.00049417      -0.00214561
H        8.18453232      -8.09447651      -2.31615655      -0.00350006       0.00021959      -0.00168487
C        5.65099737      -5.76296923       0.61991477      -0.00190405       0.00206271       0.00107315
H        4.97122173      -5.15700600      -1.33449343      -0.00151579       0.00130098      -0.00215344
C        7.45730431      -7.41832403      -0.73185033      -0.00087124       0.00017678      -0.00097863
C        6.54827756      -6.55572136       2.83704823       0.00364799      -0.00175101       0.00408630
C        6.55276513      -6.59961848      -2.94957666      -0.00407316       0.00561381      -0.01302602
C        5.66079470      -5.78187699      -0.77093603      -0.00194199       0.00186687       0.00118629
O        5.72802408      -5.75932226       3.41417864       0.00240135       0.00363452       0.00094070