448
Lattice="26.065948497402427 0.0 0.0 0.0 26.065948497402427 0.0 0.0 0.0 26.065948497402427" Properties=species:S:1:pos:R:3:forces:R:3 energy=-3064.903950254778 stress="9.292220170405608e-06 -2.410362001755633e-06 2.5730505504294463e-05 -2.410362001755633e-06 7.32513671223027e-06 2.5801498681514003e-05 2.5730505504294463e-05 2.5801498681514003e-05 2.4320792733071228e-06" pbc="T T T"
C        6.58881395      14.40687240       6.39022559       0.00110995       0.00029874      -0.00081881
O        8.33566571      14.26558419       4.71241069       0.00113034      -0.00058297      -0.00069138
H        8.18551849      15.24967826       4.85644914       0.00138747      -0.00054482      -0.00095946
C        5.71507412      12.31404118       7.25220321      -0.00046271       0.00047220      -0.00125503
H        5.04926611      14.26937531       7.87224812       0.00107297       0.00106995      -0.00137176
C        7.47357515      13.66492577       5.54540682       0.00076372      -0.00017077      -0.00054391
C        6.58737487      10.09556917       6.43338526       0.00059083      -0.00038399       0.00078444
C        6.58963826      15.88422961       6.38442504       0.00177450       0.00032935      -0.00050086
C        5.72231101      13.70482574       7.23040199       0.00060747       0.00049075      -0.00119795
O        5.75907431       9.52402108       7.22190420       0.00271931      -0.00132839       0.00244722
C        6.58512156      11.58739724       6.42044951      -0.00015263      -0.00058181      -0.00033348
H        8.13189301      11.70993417       4.92871158       0.00034987      -0.00045830      -0.00006254
O        5.77431986      16.47527600       7.15635863       0.00223791       0.00041837      -0.00001037
O        7.42286368       9.52281313       5.65066648      -0.00020093       0.00025134      -0.00033858
O        7.42208652      16.48019051       5.59269321       0.00165673       0.00031334      -0.00063497
H        5.03650493      11.77820840       7.91294859      -0.00141563       0.00099588      -0.00172213
C        7.45540199      12.26294282       5.57500137       0.00014647      -0.00041800      -0.00017857
C      -14.33897029       6.50159380       6.47403101       0.00011976       0.00170724      -0.00082412
O      -14.18990986       8.38361288       4.94904346      -0.00037611       0.00163019      -0.00188744
H      -15.17408591       8.20872186       5.05741601       0.00038314       0.00011002      -0.00340354
C      -12.24780132       5.55908525       7.26737474      -0.00120347       0.00149884      -0.00128312
H      -14.20552343       4.84693055       7.82664832       0.00039940       0.00122576      -0.00132562
C      -13.59310594       7.45510859       5.71095511      -0.00117066       0.00188578      -0.00170675
C      -10.02678298       6.50026794       6.53123346       0.00100473      -0.00432717       0.00132440
C      -15.81553842       6.50448173       6.46061928      -0.00001651       0.00340888       0.00051150
C      -13.63900455       5.56978475       7.24314513      -0.00057331       0.00128490      -0.00104149
O       -9.45124582       5.62563381       7.26715132      -0.00504017       0.00292562      -0.00437090
C      -11.51769857       6.49657764       6.51532595      -0.00336717       0.00218461      -0.00226897
H      -11.63667406       8.16612858       5.16247883       0.00052373       0.00143619      -0.00249403
O      -16.41342898       5.66284937       7.20180049      -0.00009675       0.00897749       0.00653634
O       -9.45062395       7.38180896       5.80188353       0.00132192       0.00018234      -0.00069051
O      -16.40933311       7.36366515       5.69694320       0.00038630      -0.00078766      -0.00449052
H      -11.71476068       4.82552896       7.86926053       0.00017711       0.00178146      -0.00196421
C      -12.19133355       7.43627231       5.74620906      -0.00205622       0.00275493      -0.00273989
C       -6.36713941      11.64316997       6.51919319       0.00110467      -0.00029639       0.00051457
O       -4.71430329      11.80996162       8.28774809      -0.00130974       0.00077914       0.00029091
H       -4.84881741      10.82407569       8.14506008      -0.00085358       0.00008509       0.00095468
C       -7.22473844      13.72435206       5.61111930      -0.00021088      -0.00094136      -0.00076379
H       -7.82373849      11.76001180       4.95372610       0.00119862      -0.00130216      -0.00034057
C       -5.54035518      12.39839375       7.40993093      -0.00069622       0.00034801      -0.00004653
C       -6.43709804      15.95515628       6.48143171      -0.00241232       0.00038125      -0.00022841
C       -6.35796373      10.16659862       6.53798589       0.00092030      -0.00293769       0.00193085
C       -7.19573624      12.33354725       5.63229351       0.00068960      -0.00095817      -0.00016195
O       -7.20892310      16.52141764       5.63018553      -0.00495452       0.00022781       0.00209725
C       -6.41469034      14.46398669       6.49008356      -0.00146604       0.00029813      -0.00032611
H       -4.94897349      14.36245873       8.06369915      -0.00147235       0.00105588      -0.00032125
O       -7.12451525       9.56505708       5.72221147       0.00072279       0.00178017       0.00199588
O       -5.67996893      16.53918120       7.33146409      -0.00038788       0.00080270      -0.00239749
O       -5.57286883       9.57772957       7.38099402      -0.00256772      -0.00065838       0.00239082
H       -7.87544329      14.24963672       4.91476939       0.00012199      -0.00150742      -0.00163216
C       -5.57990992      13.79999283       7.38041414      -0.00140400       0.00075325      -0.00033818
C      -11.55453556      -6.52908444       6.44521004       0.00010055      -0.00470387      -0.00472952
O      -11.68135485      -8.30020406       4.79135002      -0.00246333      -0.00434359      -0.00279473
H      -10.69898469      -8.13652859       4.93040038      -0.00275055      -0.00563817      -0.00448605
C      -13.65782733      -5.64570178       7.27460063       0.00346072      -0.00050526      -0.00184120
H      -11.70970374      -4.96795405       7.90373478       0.00571659      -0.00375855      -0.00463271
C      -12.28916395      -7.42944666       5.61043467      -0.00109740      -0.00358320      -0.00313875
C      -15.86804138      -6.53698954       6.45248037       0.00113564       0.00362961       0.00093175
C      -10.07690491      -6.52564346       6.44621505       0.00073731      -0.00525457      -0.00366601
C      -12.26641664      -5.65191855       7.26647317       0.00311025      -0.00299889      -0.00378358
O      -16.44862182      -5.68109930       7.20611008       0.00291273       0.00524563       0.00059202
C      -14.37645965      -6.53303745       6.45401962       0.00110164       0.00054550      -0.00116285
H      -14.23685350      -8.10935908       4.99508362      -0.00400462      -0.00088271       0.00042975
O       -9.49007121      -5.71677722       7.22775965       0.00049948      -0.00640219      -0.00176357
O      -16.43664510      -7.39732171       5.69455129      -0.00075144       0.00346374       0.00263411
O       -9.47369334      -7.34992465       5.64854325       0.00002363      -0.00446143      -0.00465755
H      -14.20091194      -4.95456200       7.91644413       0.00612826       0.00038545      -0.00088784
C      -13.69141818      -7.41801980       5.63197792      -0.00126887      -0.00131499      -0.00124356
C        6.48259647      -6.58934404      14.36643714      -0.00140630      -0.00118970       0.00124762
O        4.76587328      -8.29703179      14.21644319      -0.00097415      -0.00144597       0.00023535
H        4.90717137      -8.14917261      15.20073182      -0.00160925      -0.00155433       0.00032914
C        7.37977039      -5.74065842      12.27830422      -0.00080512      -0.00026659       0.00193019
H        8.00264747      -5.08576076      14.23562692      -0.00159252      -0.00113459       0.00253736
C        5.62242062      -7.45548330      13.61902765      -0.00092347      -0.00114927       0.00070728
C        6.55719888      -6.59037574      10.05439826      -0.00184314       0.00251086       0.00104342
C        6.46433047      -6.58480914      15.84258485      -0.00176410      -0.00141993       0.00122821
C        7.34821556      -5.74477022      13.66896991      -0.00123682      -0.00091684       0.00190479
O        7.38136233      -5.78512803       9.49683101      -0.00721643       0.00828558       0.00136381
C        6.53293954      -6.59135406      11.54654092      -0.00103924       0.00056412       0.00117890
H        5.00289555      -8.10022051      11.65922529       0.00022558      -0.00086064       0.00029424
O        7.24693002      -5.77859648      16.43629342      -0.00155811      -0.00182591       0.00147443
O        5.75235376      -7.39205061       9.46748721       0.00268842      -0.00181444       0.00065046
O        5.65504031      -7.39867265      16.43956417      -0.00223001      -0.00115660       0.00082953
H        8.06031974      -5.07789522      11.74730650      -0.00029957      -0.00022662       0.00264246
C        5.66155834      -7.44000742      12.21725345      -0.00041478      -0.00056189       0.00069231
C        6.49863099      11.57643033      -6.60832587      -0.00069950      -0.00014166       0.00230483
O        4.85198464      11.71823300      -8.38501701       0.00142319       0.00204605      -0.00216597
H        4.99096666      10.73412703      -8.23162971      -0.00040497       0.00121439      -0.00024119
C        7.32823098      13.67006953      -5.70467920      -0.00048710       0.00076390      -0.00041909
H        7.94652139      11.71455430      -5.03724444      -0.00011579       0.00051404       0.00000583
C        5.66850649      12.31870162      -7.50694169      -0.00042643       0.00160316      -0.00096228
C        6.51797484      15.88877640      -6.58533695      -0.00068896       0.00041495       0.00011669
C        6.49370772      10.09932292      -6.60966209      -0.00350126       0.00388177       0.00292452
C        7.31584797      12.27908583      -5.72081859      -0.00029892       0.00027564       0.00046373
O        7.28330927      16.46186210      -5.73479581      -0.00161993       0.00045045       0.00076107
C        6.51374820      14.39712172      -6.59069320       0.00001559       0.00108937      -0.00012937
H        5.05958651      14.27377570      -8.17256574       0.00025119       0.00058460      -0.00125269
O        7.25852749       9.50698206      -5.78684498      -0.00519074       0.00265357       0.00419338
O        5.75319359      16.46445310      -7.43479776      -0.00031531       0.00031267      -0.00015273
O        5.70916194       9.50307585      -7.44817687      -0.00339134       0.00198272       0.00231600
H        7.96880573      14.20518257      -5.00642683      -0.00023457       0.00117065       0.00009799
C        5.69278625      13.72082394      -7.48374711       0.00012886       0.00119514      -0.00089112
C        6.63319524       6.51904962      11.56128575       0.00586973      -0.00308164       0.00145267
O        8.40412100       4.86606179      11.69776663       0.00783068      -0.00071336       0.00641600
H        8.26115320       5.02353514      10.71463955       0.00641165      -0.00655143       0.00423408
C        5.72190495       7.33046111      13.65897200       0.00212335       0.00110646      -0.00262142
H        5.05574083       7.96113272      11.70742143       0.00757103      -0.00317077      -0.00606598
C        7.52504938       5.67938450      12.30123274       0.00629776      -0.00047618       0.00327658
C        6.59437144       6.50684521      15.87501031      -0.00670497      -0.00187542       0.00117182
C        6.64457602       6.52693412      10.08398594       0.00168532      -0.01214239      -0.00151117
C        5.74041705       7.32777753      12.26773161       0.00509365      -0.00098268      -0.00217785
O        5.75640850       7.28825041      16.44502547      -0.01149421      -0.00923206      -0.00057497
C        6.60533458       6.51041046      14.38315756       0.00032334       0.00074635       0.00293729
H        8.17866482       5.04730065      14.25287493       0.00168255       0.00197298       0.00503438
O        5.81719527       7.28457938       9.49146792      -0.00340943      -0.01718010      -0.00300492
O        7.42481398       5.72352346      16.45364796      -0.00661971       0.00162761       0.00233581
O        7.49940693       5.75771949       9.48620660       0.00302385      -0.01536447       0.00102928
H        5.02325924       7.96782997      14.19759941       0.00025040       0.00189214      -0.00526411
C        7.49550691       5.68953593      13.70343926       0.00269437       0.00188454       0.00374286
C       -6.54268357      11.61796905      -6.48878847       0.00078666      -0.00802965      -0.00076692
O       -8.22640051      11.77411450      -4.74843253      -0.00043104      -0.00217336      -0.00255958
H       -8.08002790      10.78907980      -4.88700811      -0.00004187      -0.00086923      -0.00016676
C       -5.69175982      13.70446378      -7.38919707       0.00002729       0.00204570       0.00064552
H       -5.05430807      11.74402020      -8.02283102      -0.00017562       0.00002279       0.00090901
C       -7.39681514      12.36746860      -5.61924403      -0.00025758       0.00555588      -0.00059115
C       -6.53063022      15.93047185      -6.55396532      -0.00083483      -0.00022370      -0.00045268
C       -6.53994156      10.14049214      -6.46884369      -0.02724796       0.03349703       0.02874042
C       -5.70365407      12.31361128      -7.36127844      -0.00034286       0.00014347       0.00068048
O       -5.70318588      16.49813341      -7.34809891      -0.00075231      -0.00080354      -0.00100499
C       -6.53388045      14.43873126      -6.53567672       0.00035874       0.00022545      -0.00071758
H       -8.03645738      14.32780352      -4.99874405      -0.00038499      -0.00069059      -0.00017844
O       -5.75488225       9.54287667      -7.26749991       0.02315109      -0.00121658      -0.01672602
O       -7.35883418      16.51090899      -5.76987588      -0.00082240      -0.00041684      -0.00068960
O       -7.33806140       9.55000241      -5.63881643       0.00004139      -0.00632547       0.00639733
H       -5.03059221      14.23404333      -8.07218141       0.00224506       0.00155051      -0.00098283
C       -7.38020166      13.76937182      -5.66111559       0.00014328       0.00009736      -0.00048181
C      -14.43527887       6.51404919      -6.53860555      -0.00434717      -0.00405713      -0.00376071
O      -14.28814274       4.73245391      -8.17924774       0.00650620      -0.00253748      -0.00555537
H      -15.27286208       4.88893741      -8.04212870       0.00186878      -0.00883300      -0.00298157
C      -12.34150128       7.41191107      -5.70119863      -0.00197163       0.00020724      -0.00196714
H      -14.29669570       8.08437412      -5.08725006      -0.00700551      -0.00956160      -0.00871025
C      -13.69034328       5.61443386      -7.36509962       0.00557383      -0.00723036      -0.00953703
C      -10.12121394       6.53144234      -6.50907288       0.03422924      -0.03611502      -0.02906813
C      -15.91315523       6.50638071      -6.54868302       0.00300777      -0.00991058      -0.00449156
C      -13.73310191       7.39955203      -5.71776991      -0.00402304      -0.00453253      -0.00544151
O       -9.54954032       7.36043781      -5.72006327      -0.00709860      -0.00016805      -0.00036772
C      -11.61265566       6.52826998      -6.51713712      -0.01118486       0.00115335       0.00128245
H      -11.73643125       4.94873114      -7.97456648       0.00704627       0.00143901       0.00057009
O      -16.51274553       7.32692074      -5.78795160       0.00007160      -0.00765955      -0.00776147
O       -9.54459216       5.70154204      -7.29610938      -0.00855849       0.03135559       0.02868657
O      -16.50418165       5.66175855      -7.33293596      -0.00001677      -0.01382023       0.00073476
H      -11.80495705       8.10569696      -5.05674582      -0.00914619       0.00292089       0.00106069
C      -12.28825459       5.63736363      -7.34033535       0.00182725      -0.00053991      -0.00257976
C       -6.47602549      -6.52218491     -14.47731032       0.00121705      -0.00128964       0.00070474
O       -4.67422806      -8.13985614     -14.31845364       0.00174253      -0.00044502       0.00093896
H       -4.82144672      -8.00403352     -15.30416629       0.00178220      -0.00097939       0.00104584
C       -7.39619130      -5.68822524     -12.39221574       0.00058916      -0.00183815       0.00064038
H       -8.06161482      -5.08896964     -14.35454443      -0.00034235      -0.00130526      -0.00064052
C       -5.57029277      -7.33663971     -13.72699830       0.00085517      -0.00049451       0.00110529
C       -6.52281633      -6.49047732     -10.16685733      -0.00065920       0.00129557       0.00218335
C       -6.46524603      -6.53376331     -15.95480795       0.00091562      -0.00076092       0.00026414
C       -7.37440693      -5.70940530     -13.78311766       0.00038329      -0.00163646      -0.00004194
O       -7.37432999      -5.72353009      -9.59545854       0.00036298       0.00336730       0.00291672
C       -6.50803691      -6.49342690     -11.65752339       0.00049694       0.00038047       0.00176337
H       -4.91144008      -7.93307289     -11.76655062       0.00084855      -0.00000266       0.00170680
O       -7.30056710      -5.79177413     -16.55601097       0.00089945      -0.00039030       0.00069283
O       -5.67786952      -7.25856720      -9.58908169      -0.00254717      -0.00029152       0.00440757
O       -5.60397545      -7.30164431     -16.54135047       0.00092945      -0.00105697       0.00083896
H       -8.10070901      -5.04951047     -11.86309033      -0.00078901      -0.00195630      -0.00087016
C       -5.60329559      -7.30844977     -12.32541129       0.00062757      -0.00012881       0.00142538
C       -6.50199007       6.54528794     -11.58823497      -0.00593889      -0.00145822      -0.00201497
O       -8.29436969       4.91525199     -11.76745372       0.00347721       0.00105921       0.01738591
H       -8.14783493       5.04201095     -10.78019791      -0.00826674      -0.00579484      -0.00494956
C       -5.58109971       7.39548395     -13.66696405      -0.00538810      -0.00792355       0.00238432
H       -4.93150812       7.99443984     -11.69799845       0.00165118       0.00287239      -0.00366488
C       -7.39795495       5.72598420     -12.34761408       0.00789291       0.00464161       0.00471507
C       -6.43034343       6.58300208     -15.90056571       0.04751372       0.04674745       0.00280287
C       -6.51846809       6.52391635     -10.11101413       0.04585976       0.04722374       0.00104469
C       -5.60938801       7.36957747     -12.27580252      -0.00020540      -0.00132825      -0.00203247
O       -5.61462333       7.39847447     -16.45622779      -0.00723953      -0.01225871      -0.06228746
C       -6.45500913       6.57999347     -14.40911652       0.00417783       0.00949159      -0.00488849
H       -8.03593510       5.12580570     -14.31439789      -0.00825344      -0.00914305       0.00047889
O       -5.70244206       7.27496882      -9.49160654      -0.01707866      -0.01750112      -0.04776495
O       -7.22358436       5.77284155     -16.49177866      -0.01422756      -0.01618845       0.05753063
O       -7.37017781       5.73469580      -9.54061918      -0.02730558      -0.02907299       0.06310069
H       -4.88082387       8.04479497     -14.18935935      -0.00970072      -0.00861784      -0.00107897
C       -7.35537113       5.75622773     -13.74862343      -0.00256734      -0.00613430      -0.00336063
C      -11.63739764      -6.50652226      -6.52603560       0.00163107       0.00089908       0.00007322
O      -11.79239805      -8.24103794      -4.83509659       0.00054271      -0.00050968       0.00014619
H      -10.80746975      -8.10027757      -4.97828576       0.00131832      -0.00039634      -0.00082679
C      -13.72479496      -5.63648121      -7.40716418      -0.00139422       0.00010923       0.00097532
H      -11.76444594      -4.97637625      -8.01851296      -0.00159886      -0.00014766       0.00085288
C      -12.38568629      -7.38278729      -5.67791035       0.00000383      -0.00098385       0.00071394
C      -15.94824301      -6.50953206      -6.59573229      -0.00049337      -0.00026626       0.00087604
C      -10.16132159      -6.51213640      -6.51281894       0.00042153      -0.00015701       0.00062758
C      -12.33386733      -5.64461448      -7.37574647      -0.00044084      -0.00052597       0.00129237
O      -16.52578735      -5.70753891      -7.41010767      -0.00054570       0.00036522       0.00169028
C      -14.45745494      -6.49937924      -6.57348848      -0.00076835      -0.00031337       0.00068910
H      -14.34440277      -8.03030793      -5.06455118      -0.00002013      -0.00115515       0.00032580
O       -9.56308736      -5.69241149      -7.27773871       0.00260163       0.00120948       0.00103495
O      -16.52023949      -7.32493714      -5.79248595      -0.00023604      -0.00099480       0.00034384
O       -9.56893474      -7.34979004      -5.72466366       0.00154863      -0.00078568      -0.00129811
H      -14.25546967      -4.96286978      -8.07710911      -0.00157459       0.00125657       0.00081262
C      -13.78706768      -7.36120253      -5.71486527      -0.00015687      -0.00098767       0.00045265
C        6.56318604      -1.45692821      -6.55889944       0.00217189       0.00161840      -0.00288176
O        8.06697991      -1.31348492      -8.45792122       0.00214940       0.00378971      -0.00244705
H        7.93207313      -2.29741950      -8.30024429       0.00351933       0.00346270      -0.00416034
C        5.81099000       0.63789655      -5.59034350       0.00247862       0.00088670      -0.00095189
H        5.23399680      -1.31767679      -4.88589812       0.00376850      -0.00027643      -0.00256179
C        7.32745732      -0.71391473      -7.51333754       0.00262191       0.00289972      -0.00314017
C        6.56412830       2.85768278      -6.52265084       0.00189936       0.00353664       0.00058883
C        6.55568119      -2.93433284      -6.57279063       0.00259320       0.00158065      -0.00428460
C        5.81635337      -0.75345777      -5.61152009       0.00291354       0.00055079      -0.00217769
O        5.82726716       3.43241397      -5.64839091      -0.00469678       0.00272950      -0.00629282
C        6.56467153       1.36545901      -6.52869616       0.00230341       0.00190955       0.00016185
H        7.90343132       1.24007740      -8.20924460       0.00103688       0.00352359      -0.00066350
O        5.85240611      -3.53000824      -5.70061631       0.00218982       0.00099688      -0.00481313
O        7.30392155       3.43260723      -7.39514615       0.00883158       0.00246961       0.00632289
O        7.26968803      -3.52955392      -7.47563535       0.00310618       0.00187418      -0.00424246
H        5.22264701       1.17318610      -4.84751532       0.00211932       0.00010230      -0.00097605
C        7.31656366       0.68827385      -7.47975595       0.00210484       0.00217923      -0.00139286
C       -6.52591501      -1.41506614      -6.55155810      -0.00900735       0.00414240      -0.00742426
O       -8.10580619      -1.25477810      -8.38632938      -0.00267440      -0.00165040      -0.00088744
H       -7.99524191      -2.23969717      -8.21753300      -0.00467556       0.00214696      -0.00473261
C       -5.71065258       0.67107049      -5.61661466      -0.00065908       0.00137766      -0.00318763
H       -5.12545440      -1.28952757      -4.93487515      -0.00640929      -0.00503241      -0.00755341
C       -7.31649751      -0.66372045      -7.47717402      -0.00780727       0.00165332      -0.00852698
C       -6.47876338       2.89757487      -6.51617424      -0.02902752       0.03194422      -0.02833998
C       -6.53803279      -2.89242872      -6.56549347       0.00008654       0.00112804       0.00010864
C       -5.73126553      -0.72008834      -5.63685852      -0.00488896      -0.00031002      -0.00625950
O       -5.72824910       3.46216655      -5.64719616      -0.00088044      -0.00546209      -0.00291161
C       -6.48885547       1.40638296      -6.52844263      -0.00071236      -0.00894111      -0.00193121
H       -7.88687992       1.29574360      -8.16155721       0.00107687       0.00562131       0.00102122
O       -5.76596429      -3.49384984      -5.75880072       0.00026456       0.00328051      -0.00131849
O       -7.22381642       3.48130734      -7.37882208       0.01991006      -0.00629906       0.02910324
O       -7.33614700      -3.48026572      -7.40049416      -0.00051586      -0.00084377      -0.00219257
H       -5.09183887       1.20193093      -4.89566063       0.00211986      -0.00867945       0.00009132
C       -7.28214035       0.73799611      -7.45139595      -0.00202806      -0.00119853      -0.00326331
C        6.54326762       6.46658462      -1.46221318      -0.00050100       0.00096371      -0.00182427
O        4.71125899       4.88454407      -1.29681218      -0.00193387       0.00018297       0.00104873
H        4.85725541       5.01837129      -2.28281280      -0.00163705      -0.00155174       0.00018377
C        7.50889663       7.25626328       0.62023795      -0.00028496      -0.00053088      -0.00133862
H        8.16664546       7.85765378      -1.34376287      -0.00002354      -0.00080938      -0.00235054
C        5.62772004       5.66669985      -0.70805055      -0.00176850      -0.00022545       0.00024102
C        6.62581490       6.47453548       2.85007143      -0.00098910       0.00136233      -0.00178203
C        6.51296006       6.47092539      -2.93955789      -0.00172422       0.00025720       0.00215207
C        7.47021821       7.24918241      -0.77063977      -0.00024843      -0.00022317      -0.00192958
O        7.50692477       7.20720008       3.42018810       0.00085023      -0.00082988      -0.00198715
C        6.60514434       6.47229520       1.35861908      -0.00029961       0.00057981      -0.00098430
H        4.97079685       5.07543709       1.25498911      -0.00056273       0.00058471      -0.00034491
O        7.33907598       7.22328137      -3.54287860      -0.00411121       0.00248617       0.00121679
O        5.75346481       5.73885658       3.42917264      -0.00340136       0.00423952      -0.00150116
O        5.64681176       5.70806258      -3.52557697       0.00045170      -0.00235395       0.00083662
H        8.23736226       7.86946261       1.14717572       0.00073212      -0.00043317      -0.00164894
C        5.67358327       5.68549532       0.69358628      -0.00077462       0.00021446      -0.00034969
C        6.59786119      -1.43820531       6.50927356       0.00128831       0.00020710       0.00184318
O        8.24452214      -1.31267713       8.28769967      -0.00095513       0.00225872       0.00353488
H        8.09823517      -2.29504825       8.13123643       0.00348270       0.00204291       0.00108606
C        5.77667175       0.66423531       5.61960228      -0.00052135      -0.00085016       0.00086992
H        5.15162295      -1.28344628       4.93718305       0.00047094      -0.00201333       0.00252902
C        7.43221075      -0.70360051       7.41125653      -0.00010086       0.00132614       0.00242095
C        6.59486137       2.87499132       6.50650231      -0.00099633       0.00012652      -0.00143948
C        6.59450770      -2.91467128       6.50518406       0.00266875       0.00020446       0.00215837
C        5.78418895      -0.72687721       5.62556860       0.00032654      -0.00103019       0.00196256
O        5.81653092       3.44852368       5.66851934      -0.00260148      -0.00006509       0.00005929
C        6.59523767       1.38346810       6.50835822      -0.00115219       0.00047592       0.00034406
H        8.05477241       1.24502878       8.08428446      -0.00151449       0.00167021       0.00106814
O        5.82688309      -3.50065841       5.67891409      -0.00176574      -0.00045937       0.00681092
O        7.37308072       3.45179576       7.34463137       0.00126140       0.00034400      -0.00422900
O        7.37236329      -3.52017913       7.34303965       0.00825735       0.00131200      -0.00236168
H        5.13647963       1.20597015       4.92602818      -0.00069443      -0.00205071      -0.00008486
C        7.41641856       0.69879719       7.39482236      -0.00116797       0.00115715       0.00131584
C        6.55116402      -6.59746224      -1.47338520      -0.00051734       0.00002567       0.00107417
O        8.34394494      -8.22610954      -1.33295869      -0.00104943      -0.00064816       0.00185178
H        8.18395316      -8.09322697      -2.31691526      -0.00053212      -0.00067132       0.00181232
C        5.65141928      -5.76342945       0.62030525      -0.00040742       0.00055613       0.00109391
H        4.97263966      -5.15802707      -1.33536476      -0.00026500       0.00022426       0.00089014
C        7.45816746      -7.41852733      -0.73172548      -0.00091985      -0.00017911       0.00145212
C        6.54878583      -6.55704171       2.83797308       0.00099686       0.00214509       0.00130587
C        6.55243410      -6.60114121      -2.95099730       0.00013697       0.00036498       0.00095046
C        5.66173064      -5.78249177      -0.77065412      -0.00039174       0.00019697       0.00103904
O        5.72725150      -5.76112800       3.41398549       0.00268030       0.00368083       0.00151141