448
Lattice="26.065947012918024 0.0 0.0 0.0 26.065947012918024 0.0 0.0 0.0 26.065947012918024" Properties=species:S:1:pos:R:3:forces:R:3 energy=-3064.901615062758 stress="1.1162077795636577e-05 2.7036265933304217e-06 1.0726266874950235e-05 2.7036265933304217e-06 4.30517318690852e-06 9.567937112165014e-06 1.0726266874950235e-05 9.567937112165014e-06 1.5141123535031146e-06" pbc="T T T"
C        6.58895886      14.40690405       6.39011839       0.00107698       0.00016621      -0.00077286
O        8.33580328      14.26550377       4.71232812       0.00097547      -0.00065802      -0.00057655
H        8.18569833      15.24960421       4.85632553       0.00135686      -0.00061441      -0.00089122
C        5.71501434      12.31409325       7.25204115      -0.00045286       0.00040050      -0.00117847
H        5.04939742      14.26951133       7.87207491       0.00086710       0.00094239      -0.00124099
C        7.47367677      13.66488998       5.54533318       0.00076575      -0.00035095      -0.00054515
C        6.58744968      10.09550865       6.43348825       0.00054156      -0.00052857       0.00082480
C        6.58986624      15.88427529       6.38436021       0.00167396       0.00033852      -0.00046795
C        5.72238974      13.70488533       7.23024555       0.00054240       0.00046647      -0.00113718
O        5.75941897       9.52383761       7.22223027       0.00261298      -0.00148898       0.00251586
C        6.58509981      11.58735326       6.42041044      -0.00013263      -0.00020583      -0.00023911
H        8.13193374      11.70987386       4.92870690       0.00027011      -0.00051887      -0.00000009
O        5.77460687      16.47533188       7.15635435       0.00213786       0.00046297      -0.00011766
O        7.42284368       9.52283848       5.65061218      -0.00018606       0.00016561      -0.00047563
O        7.42230226      16.48022800       5.59260865       0.00166433       0.00025207      -0.00066104
H        5.03632370      11.77833726       7.91272359      -0.00134611       0.00092718      -0.00168761
C        7.45542544      12.26289273       5.57497397       0.00021628      -0.00037705      -0.00021574
C      -14.33900931       6.50183511       6.47391001      -0.00045246       0.00223502      -0.00114768
O      -14.18997059       8.38384673       4.94877614      -0.00065183       0.00167510      -0.00204770
H      -15.17409893       8.20874364       5.05696538      -0.00090228       0.00035009      -0.00359517
C      -12.24791385       5.55931217       7.26717263      -0.00017702       0.00201854      -0.00201981
H      -14.20551189       4.84706581       7.82649989      -0.00039171       0.00112012      -0.00105214
C      -13.59323085       7.45535903       5.71073192       0.00000490       0.00193092      -0.00164052
C      -10.02677555       6.50017358       6.53108788       0.00408206      -0.00079771       0.00066054
C      -15.81554155       6.50492246       6.46068228      -0.00036743       0.00331550       0.00041587
C      -13.63909309       5.56996898       7.24299938      -0.00058784       0.00174693      -0.00129016
O       -9.45123161       5.62563071       7.26701030       0.00763268       0.00124657       0.00081017
C      -11.51791433       6.49680846       6.51504664       0.00200469       0.00044816      -0.00154635
H      -11.63664334       8.16630924       5.16216121      -0.00043168       0.00123323      -0.00224063
O      -16.41344967       5.66399809       7.20264002      -0.00035453       0.00839330       0.00608925
O       -9.45046608       7.38178134       5.80182011       0.00079186      -0.00041802      -0.00052891
O      -16.40929077       7.36356515       5.69636459       0.00004125      -0.00064133      -0.00430396
H      -11.71476167       4.82576717       7.86900045      -0.00042152       0.00198009      -0.00208002
C      -12.19147420       7.43656204       5.74590599       0.00067440       0.00103557      -0.00145923
C       -6.36703716      11.64311749       6.51922971       0.00017378       0.00066056       0.00011742
O       -4.71444834      11.81003308       8.28780794      -0.00061973       0.00080499       0.00089910
H       -4.84892986      10.82412832       8.14519372      -0.00096901       0.00074072       0.00128391
C       -7.22476360      13.72423282       5.61102158      -0.00019218      -0.00071322      -0.00074581
H       -7.82357622      11.75984108       4.95368759       0.00123720      -0.00137803      -0.00031108
C       -5.54043205      12.39845920       7.40994015      -0.00026133       0.00057069       0.00048771
C       -6.43740582      15.95520449       6.48140169      -0.00220328       0.00027233      -0.00021640
C       -6.35789930      10.16653928       6.53819654      -0.00053583       0.00240892       0.00065443
C       -7.19564217      12.33342557       5.63227328       0.00045216      -0.00043440      -0.00048318
O       -7.20955955      16.52144320       5.63044662      -0.00456515       0.00006623       0.00181536
C       -6.41488143      14.46401342       6.49003796      -0.00133323       0.00004205      -0.00026303
H       -4.94916991      14.36259095       8.06365427      -0.00153998       0.00098048      -0.00030590
O       -7.12448611       9.56521200       5.72236677       0.00017483       0.00079136       0.00049915
O       -5.68001252      16.53928465       7.33116363      -0.00029518       0.00069105      -0.00213143
O       -5.57307812       9.57769199       7.38133174      -0.00034718       0.00280447       0.00094176
H       -7.87542667      14.24943477       4.91456217       0.00011488      -0.00161565      -0.00146413
C       -5.58007884      13.80007303       7.38038084      -0.00110180       0.00041032      -0.00011867
C      -11.55446056      -6.52963459       6.44465473       0.00080369      -0.00383696      -0.00381679
O      -11.68169620      -8.30079567       4.79096124      -0.00266889      -0.00453261      -0.00297394
H      -10.69931031      -8.13725371       4.92982263      -0.00240940      -0.00544076      -0.00433556
C      -13.65738297      -5.64577219       7.27435510       0.00327803      -0.00045000      -0.00181426
H      -11.70898183      -4.96845428       7.90312142       0.00519972      -0.00368609      -0.00454152
C      -12.28933241      -7.42990955       5.61003045      -0.00122182      -0.00338998      -0.00290328
C      -15.86789357      -6.53652867       6.45259971       0.00110400       0.00322341       0.00088413
C      -10.07683032      -6.52632752       6.44573462       0.00051600      -0.00517720      -0.00367981
C      -12.26600008      -5.65229807       7.26599104       0.00310100      -0.00271879      -0.00348435
O      -16.44824357      -5.68043738       7.20618996       0.00278649       0.00454774       0.00076538
C      -14.37631424      -6.53295337       6.45388185       0.00105893       0.00073595      -0.00090441
H      -14.23735914      -8.10947196       4.99513650      -0.00358748      -0.00086535       0.00030151
O       -9.49001044      -5.71762598       7.22750554       0.00070237      -0.00652734      -0.00219353
O      -16.43674069      -7.39688135       5.69488314      -0.00066231       0.00312536       0.00231711
O       -9.47369215      -7.35049234       5.64794750      -0.00014764      -0.00434348      -0.00458508
H      -14.20013141      -4.95450565       7.91632915       0.00562293       0.00047279      -0.00095515
C      -13.69159073      -7.41819024       5.63181571      -0.00126232      -0.00120418      -0.00115084
C        6.48198664      -6.58987941      14.36596360      -0.00344712      -0.00249260       0.00109726
O        4.76600078      -8.29696316      14.21659549      -0.00244584      -0.00312994      -0.00034763
H        4.90734147      -8.14900451      15.20117669       0.00007794       0.00036081      -0.00106124
C        7.37977667      -5.74059030      12.27833939      -0.00136105      -0.00057617       0.00251184
H        8.00207854      -5.08617848      14.23622435      -0.00473947      -0.00379573       0.00248508
C        5.62225867      -7.45565503      13.61888590      -0.00270359      -0.00278640      -0.00117471
C        6.55695555      -6.59005960      10.05445452      -0.00185376       0.00224482      -0.00040632
C        6.46363256      -6.58546883      15.84346197       0.00612782       0.00104981      -0.00061472
C        7.34788123      -5.74498903      13.66896955      -0.00289193      -0.00252537       0.00231373
O        7.38043635      -5.78406275       9.49698149      -0.00661770       0.00794585       0.00027502
C        6.53280034      -6.59129137      11.54648160      -0.00035441       0.00113499       0.00013514
H        5.00289010      -8.10036831      11.65917246      -0.00039270      -0.00149700      -0.00192552
O        7.24713824      -5.78095461      16.43440876      -0.00424660      -0.01966686       0.01105016
O        5.75267961      -7.39230082       9.46753226       0.00243700      -0.00173890      -0.00016835
O        5.65327633      -7.39992384      16.43943230      -0.00533386       0.00089029      -0.00311160
H        8.06039747      -5.07780238      11.74756475       0.00022564       0.00045817       0.00197641
C        5.66152341      -7.44006669      12.21698476      -0.00098012      -0.00108542      -0.00049161
C        6.49843677      11.57659825      -6.60814194      -0.00175121       0.00183977       0.00103887
O        4.85217410      11.71844210      -8.38528657       0.00148742       0.00150419      -0.00183256
H        4.99091297      10.73432600      -8.23166758      -0.00041692       0.00156896      -0.00039776
C        7.32820205      13.67016992      -5.70469546      -0.00006832       0.00096859       0.00003331
H        7.94651526      11.71462147      -5.03722696      -0.00024097       0.00078315       0.00009610
C        5.66850014      12.31887300      -7.50700555      -0.00015098       0.00134552      -0.00044127
C        6.51790250      15.88882807      -6.58531008      -0.00009697       0.00100653       0.00188381
C        6.49324662      10.09962879      -6.60929367      -0.00335408       0.00166333       0.00263743
C        7.31581192      12.27918641      -5.72074949      -0.00046296       0.00118902       0.00042980
O        7.28297205      16.46194790      -5.73451545      -0.00262110       0.00109354       0.00103873
C        6.51376003      14.39722042      -6.59074261       0.00003000       0.00065234      -0.00036651
H        5.05962390      14.27386457      -8.17272685       0.00046747       0.00090606      -0.00114019
O        7.25787203       9.50729777      -5.78629309      -0.00421227       0.00169516       0.00421815
O        5.75301109      16.46450966      -7.43465271      -0.00124087      -0.00009749       0.00029364
O        5.70873648       9.50337493      -7.44786555      -0.00284733       0.00208664       0.00207904
H        7.96875595      14.20531246      -5.00643555      -0.00031246       0.00101404      -0.00004217
C        5.69280954      13.72096471      -7.48385219       0.00024497       0.00120758      -0.00067325
C        6.63396188       6.51862429      11.56132526       0.00560862      -0.00358122      -0.00022894
O        8.40511855       4.86598607      11.69852385       0.00730313      -0.00038850       0.00593539
H        8.26199011       5.02268424      10.71527548       0.00625583      -0.00620364       0.00549201
C        5.72216954       7.33060642      13.65865096       0.00128394       0.00153661      -0.00403568
H        5.05668602       7.96075523      11.70663937       0.00684865      -0.00254388      -0.00551694
C        7.52582812       5.67934747      12.30166255       0.00581955      -0.00052073       0.00278718
C        6.59337560       6.50690117      15.87484890      -0.00777140       0.00072582      -0.00134645
C        6.64482013       6.52534539      10.08387054       0.00190363      -0.01181242       0.00017923
C        5.74113167       7.32759572      12.26742653       0.00538226      -0.00148358      -0.00364017
O        5.75464635       7.28730539      16.44499508      -0.01302683      -0.00624441      -0.00019547
C        6.60525659       6.51057804      14.38322110      -0.00131990       0.00162129      -0.00218586
H        8.17885824       5.04756363      14.25356880       0.00146169       0.00235255       0.00551554
O        5.81688730       7.28226407       9.49112449      -0.00128820      -0.01753526      -0.00239081
O        7.42413784       5.72402638      16.45332764      -0.00287684       0.00283983      -0.00360087
O        7.49965335       5.75587554       9.48638604       0.00118413      -0.01289665       0.00136765
H        5.02331515       7.96805671      14.19691920       0.00053991       0.00169562      -0.00517925
C        7.49585832       5.68977578      13.70389105       0.00266074       0.00146740       0.00239338
C       -6.54282548      11.61813713      -6.48865573      -0.00047451       0.00097168       0.00065546
O       -8.22649912      11.77404360      -4.74871941      -0.00232052       0.00005749      -0.00047237
H       -8.08002276      10.78895852      -4.88703979       0.00023758       0.00034023      -0.00039418
C       -5.69166075      13.70455306      -7.38921434       0.00059205       0.00066997      -0.00010357
H       -5.05431938      11.74401192      -8.02272097      -0.00033047       0.00030285       0.00115375
C       -7.39689303      12.36772137      -5.61927275      -0.00162013       0.00078370       0.00070660
C       -6.53071417      15.93046083      -6.55404013      -0.00045284       0.00024035      -0.00055957
C       -6.54050780      10.14124335      -6.46800784       0.00456577      -0.00391272      -0.00104017
C       -5.70364945      12.31368737      -7.36123020      -0.00026865       0.00092855       0.00083369
O       -5.70328538      16.49806647      -7.34821534      -0.00060816       0.00030246      -0.00072864
C       -6.53386887      14.43878769      -6.53573686      -0.00003890       0.00033658      -0.00042044
H       -8.03651887      14.32775852      -4.99875643      -0.00071609       0.00088309       0.00010106
O       -5.75445593       9.54391394      -7.26723399       0.00015689      -0.00916766       0.00307088
O       -7.35893663      16.51088251      -5.76995542      -0.00050646       0.00021821      -0.00052812
O       -7.33797980       9.54969517      -5.63811208       0.00177060       0.00128774       0.00293966
H       -5.03040492      14.23415976      -8.07220076       0.00086515       0.00027005       0.00041071
C       -7.38020695      13.76950002      -5.66115874      -0.00050032       0.00126972       0.00001456
C      -14.43522559       6.51329417      -6.53924227       0.00277719      -0.00562808      -0.00453763
O      -14.28759615       4.73203188      -8.18011498       0.00508983      -0.00464449      -0.00710102
H      -15.27251666       4.88755100      -8.04255159       0.00495555      -0.01008067      -0.00362542
C      -12.34185574       7.41190371      -5.70146177      -0.00140896      -0.00113710      -0.00238587
H      -14.29768459       8.08331074      -5.08822519      -0.00702392      -0.00613085      -0.00585224
C      -13.68996951       5.61388087      -7.36596189       0.00234566      -0.00385652      -0.00552108
C      -10.12062781       6.53070080      -6.50930667      -0.00331450       0.00568491       0.00597044
C      -15.91271411       6.50554113      -6.54907723       0.00199822      -0.00576874      -0.00348907
C      -13.73343668       7.39894793      -5.71847897      -0.00042611      -0.00341536      -0.00393374
O       -9.55005765       7.36043320      -5.71999158      -0.00106895       0.00027804       0.00242904
C      -11.61274714       6.52818869      -6.51715913       0.00032633      -0.00106189      -0.00074325
H      -11.73552020       4.94886951      -7.97454976       0.00643947       0.00055638      -0.00066640
O      -16.51279908       7.32614603      -5.78872582      -0.00005419      -0.00566247      -0.00575524
O       -9.54381761       5.70203997      -7.29551940      -0.00656841      -0.00191889       0.00206377
O      -16.50323116       5.66071141      -7.33310871       0.00495186      -0.00913049      -0.00242229
H      -11.80609126       8.10602400      -5.05666457      -0.00779276       0.00097085      -0.00099790
C      -12.28793469       5.63731275      -7.34064524       0.00232726      -0.00111329      -0.00280095
C       -6.47589860      -6.52232657     -14.47723388       0.00084416      -0.00103507       0.00077442
O       -4.67402251      -8.13989630     -14.31829732       0.00131883      -0.00012790       0.00153702
H       -4.82122119      -8.00415399     -15.30402060       0.00155062      -0.00075590       0.00146901
C       -7.39615280      -5.68842479     -12.39216763       0.00008929      -0.00126756       0.00055796
H       -8.06161326      -5.08918324     -14.35458364       0.00042373      -0.00207966       0.00022273
C       -5.57015821      -7.33672013     -13.72683989       0.00087041      -0.00037957       0.00141778
C       -6.52289577      -6.49031560     -10.16650754      -0.00034461       0.00093692       0.00244693
C       -6.46512091      -6.53386884     -15.95474393       0.00102090      -0.00091561       0.00070473
C       -7.37437008      -5.70960055     -13.78310162       0.00045248      -0.00154094       0.00055264
O       -7.37423723      -5.72313576      -9.59511927       0.00092981       0.00267897       0.00232831
C       -6.50795575      -6.49340946     -11.65729092       0.00034920      -0.00003096       0.00177515
H       -4.91133920      -7.93306371     -11.76633321       0.00071449       0.00012971       0.00168465
O       -7.30043896      -5.79183716     -16.55591493       0.00111058      -0.00067671       0.00082274
O       -5.67821816      -7.25858175      -9.58855291      -0.00230023      -0.00025113       0.00359729
O       -5.60386033      -7.30177322     -16.54126277       0.00084200      -0.00088428       0.00048240
H       -8.10081059      -5.04976190     -11.86318650      -0.00089441      -0.00173165      -0.00034073
C       -5.60321048      -7.30846481     -12.32521535       0.00058092       0.00002334       0.00165425
C       -6.50257440       6.54524503     -11.58811120      -0.00756555      -0.00420467       0.00173239
O       -8.29393235       4.91538593     -11.76651751       0.00144150      -0.00065149       0.00441501
H       -8.14852148       5.04157085     -10.77958242      -0.00110606      -0.00034324       0.00622597
C       -5.58137750       7.39496885     -13.66660345       0.00163073       0.00216571       0.00528092
H       -4.93137928       7.99471057     -11.69853280       0.00003600       0.00064858      -0.00129673
C       -7.39762305       5.72598691     -12.34761149      -0.00181264      -0.00288301      -0.00279610
C       -6.42792819       6.58533285     -15.90063549      -0.00404930      -0.00404275       0.00074516
C       -6.51941856       6.52344898     -10.11062283      -0.00605624      -0.00631659      -0.00174494
C       -5.60948384       7.36937926     -12.27557945      -0.00377037      -0.00322054       0.00628504
O       -5.61471936       7.39782092     -16.46280306      -0.00520826      -0.00766706      -0.00783272
C       -6.45472356       6.58091420     -14.40935779       0.00144670       0.00430519       0.00123207
H       -8.03659299       5.12496921     -14.31410931       0.00227816      -0.00029016       0.00437814
O       -5.70177907       7.27540527      -9.49566140       0.00817615       0.00725165      -0.02233743
O       -7.22407575       5.77209865     -16.48536680      -0.00466508      -0.00705462       0.00801787
O       -7.36979175       5.73465431      -9.53571261       0.00530929       0.00361536       0.01755947
H       -4.88174445       8.04395354     -14.18960159       0.00034883      -0.00030225      -0.00288034
C       -7.35535275       5.75584735     -13.74901872       0.00314511       0.00193762      -0.00175330
C      -11.63713969      -6.50650433      -6.52593896       0.00105037       0.00053811       0.00007194
O      -11.79224293      -8.24111553      -4.83507166       0.00243483      -0.00053844       0.00004677
H      -10.80732262      -8.10032705      -4.97839501       0.00194294      -0.00064318      -0.00060359
C      -13.72466464      -5.63652287      -7.40693385      -0.00140818      -0.00212687       0.00330900
H      -11.76453138      -4.97627392      -8.01851611      -0.00042210       0.00036527       0.00041006
C      -12.38545020      -7.38289449      -5.67782612       0.00227537      -0.00068946       0.00072825
C      -15.94894806      -6.51021108      -6.59537348       0.00196385      -0.00296453      -0.00337038
C      -10.16110603      -6.51210858      -6.51278350       0.00231210      -0.00023736       0.00064450
C      -12.33374617      -5.64456576      -7.37568384      -0.00090154      -0.00011530       0.00109569
O      -16.52306749      -5.70979665      -7.41049834      -0.01360892      -0.01625690      -0.00052651
C      -14.45715627      -6.49971834      -6.57301597       0.00239137      -0.00257499       0.00314889
H      -14.34439571      -8.03043841      -5.06453008       0.00116432      -0.00200109       0.00117964
O       -9.56276379      -5.69230423      -7.27755915       0.00279553       0.00070100       0.00139329
O      -16.51979156      -7.32619532      -5.79098720       0.00776075       0.00114635       0.00304731
O       -9.56872866      -7.34993192      -5.72478018       0.00221888      -0.00117547      -0.00046799
H      -14.25585383      -4.96301364      -8.07670638      -0.00034838      -0.00213517       0.00397576
C      -13.78691739      -7.36136824      -5.71473492       0.00315850      -0.00246173       0.00241193
C        6.55917826      -1.45688251      -6.55547613      -0.00065774       0.00070092       0.00568244
O        5.05398287      -1.32807869      -4.65328989       0.00036199       0.00461783      -0.00014097
H        5.18370916      -2.31123092      -4.82497880      -0.00047463       0.01644562       0.00290557
C        7.32294210       0.64678974      -7.49424376      -0.00071040       0.00758760       0.01054519
H        7.88739904      -1.30299810      -8.22578695       0.00142180      -0.00191336      -0.00441499
C        5.79793467      -0.72222874      -5.59005204       0.00841367       0.00220364      -0.00543502
C        6.58077584       2.85809948      -6.53143307       0.02116789       0.00312460      -0.01862611
C        6.55735192      -2.93414501      -6.56444755      -0.03518951      -0.00305777       0.04240882
C        7.30901526      -0.74467909      -7.49269538       0.00628734       0.00528344      -0.00448934
O        7.32503576       3.43408368      -7.39861412       0.00854014       0.03149137      -0.01063224
C        6.57504231       1.36576528      -6.54407213      -0.00081121       0.00524707       0.00471332
H        5.23408440       1.22565252      -4.86750775      -0.00316504       0.00469900       0.00402302
O        7.25289142      -3.53289640      -7.43985401      -0.03753163       0.07307676       0.02346569
O        5.84566044       3.43195679      -5.65431109      -0.00615327      -0.02792524      -0.02258671
O        5.83573413      -3.52724616      -5.66487360      -0.03229128      -0.08553605       0.00883540
H        7.91445770       1.18824821      -8.23001313      -0.00298316       0.00221974       0.00265651
C        5.81767529       0.68015118      -5.60422938      -0.00008490      -0.00047171       0.00885218
C       -6.52679728      -1.41482406      -6.55223810      -0.00465222       0.00008866      -0.00382138
O       -8.10649043      -1.25485645      -8.38685477      -0.00525996       0.00036959      -0.00425936
H       -7.99581139      -2.23968112      -8.21809123      -0.00434015      -0.00018954      -0.00418503
C       -5.71077582       0.67103768      -5.61705394      -0.00139634      -0.00110881      -0.00335876
H       -5.12630776      -1.29010692      -4.93588688      -0.00586639      -0.00299421      -0.00711007
C       -7.31725033      -0.66358754      -7.47795727      -0.00454981       0.00114674      -0.00419376
C       -6.47953103       2.89814479      -6.51656621       0.00328767      -0.00416482       0.00506008
C       -6.53825169      -2.89221199      -6.56573729      -0.00240840       0.00117829      -0.00295437
C       -5.73189255      -0.72011645      -5.63764788      -0.00412427       0.00006500      -0.00497114
O       -5.72828359       3.46180478      -5.64743376       0.00011494      -0.00106718      -0.00051470
C       -6.48907543       1.40637988      -6.52880052      -0.00101759       0.00004915      -0.00150566
H       -7.88684166       1.29645836      -8.16154996      -0.00148905       0.00539105      -0.00215827
O       -5.76593110      -3.49331603      -5.75896314      -0.00045869       0.00552995      -0.00173652
O       -7.22399301       3.48202824      -7.37804346      -0.00524408      -0.00753274       0.00212363
O       -7.33612741      -3.48036568      -7.40067694      -0.00086254      -0.00146779      -0.00218754
H       -5.09158835       1.20093388      -4.89568965       0.00034252      -0.00584356      -0.00232726
C       -7.28237953       0.73806095      -7.45178753      -0.00227251       0.00186526      -0.00320250
C        6.54304494       6.46659762      -1.46233535      -0.00225078      -0.00050521      -0.00114681
O        4.71101622       4.88449353      -1.29673775      -0.00113406       0.00056809      -0.00028216
H        4.85707927       5.01835351      -2.28273732      -0.00136538      -0.00037968      -0.00023427
C        7.50889397       7.25622588       0.62003178      -0.00001662      -0.00021444      -0.00200006
H        8.16664971       7.85755583      -1.34404662      -0.00059929      -0.00122493      -0.00186684
C        5.62754058       5.66670423      -0.70808402      -0.00137925       0.00024603      -0.00016913
C        6.62568584       6.47470947       2.84986772      -0.00093001       0.00131693      -0.00148926
C        6.51261777       6.47066735      -2.93967550      -0.00241168      -0.00179863      -0.00129361
C        7.47017271       7.24914499      -0.77087380      -0.00109890      -0.00080812      -0.00190325
O        7.50704000       7.20710145       3.41993817       0.00087446      -0.00062166      -0.00180689
C        6.60508791       6.47235693       1.35845209      -0.00036210       0.00056521      -0.00134998
H        4.97071521       5.07550701       1.25495271      -0.00074598       0.00047398      -0.00005161
O        7.33842812       7.22351646      -3.54278234      -0.00393706       0.00195101      -0.00016490
O        5.75302746       5.73939971       3.42898364      -0.00317013       0.00397689      -0.00134390
O        5.64690362       5.70729295      -3.52590941       0.00166128      -0.00539675      -0.00226504
H        8.23743132       7.86938337       1.14694406       0.00046937      -0.00067311      -0.00187391
C        5.67348375       5.68553264       0.69351184      -0.00074585       0.00037291      -0.00021310
C        6.59802867      -1.43817496       6.50951553       0.00121572       0.00032662       0.00184640
O        8.24441168      -1.31237967       8.28816333      -0.00068983       0.00231370       0.00345066
H        8.09868198      -2.29478381       8.13137525       0.00331594       0.00209746       0.00106379
C        5.77659618       0.66411526       5.61970514      -0.00063890      -0.00099060       0.00069150
H        5.15168597      -1.28370297       4.93751422       0.00046929      -0.00188481       0.00253483
C        7.43218707      -0.70343509       7.41155550      -0.00015818       0.00123533       0.00221287
C        6.59473106       2.87501197       6.50630801      -0.00093516       0.00024733      -0.00157390
C        6.59485408      -2.91463727       6.50546637       0.00258746       0.00042184       0.00215908
C        5.78422650      -0.72699700       5.62581661       0.00023910      -0.00087148       0.00181616
O        5.81617752       3.44852016       5.66850685      -0.00274417      -0.00009760      -0.00024339
C        6.59508816       1.38349969       6.50840081      -0.00114969       0.00011488       0.00025231
H        8.05457607       1.24525692       8.08442680      -0.00155516       0.00196158       0.00110642
O        5.82666227      -3.50071062       5.67979266      -0.00147646      -0.00021714       0.00654912
O        7.37326678       3.45185179       7.34409506       0.00159982       0.00044330      -0.00416318
O        7.37342328      -3.52000603       7.34273450       0.00783084       0.00137544      -0.00213664
H        5.13639272       1.20570392       4.92602506      -0.00068112      -0.00194148       0.00007266
C        7.41626347       0.69895697       7.39498726      -0.00115523       0.00123887       0.00123914
C        6.55059970      -6.59713418      -1.47387672      -0.00239218       0.00065416       0.00131646
O        8.34407363      -8.22643822      -1.33259974      -0.00268719       0.00106361       0.00123367
H        8.18428415      -8.09366817      -2.31625831       0.00120911      -0.00262078       0.00036903
C        5.65148241      -5.76345189       0.62022700      -0.00083933       0.00089344       0.00144996
H        4.97222075      -5.15774794      -1.33497924      -0.00375162       0.00284215       0.00085935
C        7.45799079      -7.41852822      -0.73177477      -0.00287073       0.00126464      -0.00033501
C        6.54890770      -6.55675688       2.83805970       0.00086673       0.00222654      -0.00017929
C        6.55207273      -6.60068647      -2.95009579       0.00754039      -0.00067439      -0.00123215
C        5.66148890      -5.78236549      -0.77077074      -0.00225964       0.00179316       0.00143657
O        5.72759993      -5.76065290       3.41415323       0.00279136       0.00341234       0.00037263