448
Lattice="26.065951544033062 0.0 0.0 0.0 26.065951544033062 0.0 0.0 0.0 26.065951544033062" Properties=species:S:1:pos:R:3:forces:R:3 energy=-3064.9014955509015 stress="4.368573941363873e-06 -1.986962097353481e-06 6.539687209176955e-06 -1.986962097353481e-06 7.39487255175988e-06 3.030749998523118e-06 6.539687209176955e-06 3.030749998523118e-06 5.772390714397059e-07" pbc="T T T"
C        6.58840120      14.40754763       6.39065174      -0.00052989       0.00134367       0.00093737
O        8.33590852      14.26547406       4.71217345      -0.00054936       0.00010279       0.00073047
H        8.18587277      15.24928702       4.85609920       0.00362494      -0.00001540      -0.00291103
C        5.71517723      12.31425703       7.25211108      -0.00056285       0.00058224      -0.00107533
H        5.04896920      14.26913358       7.87258528      -0.00191386       0.00097842       0.00173002
C        7.47353026      13.66516520       5.54546656      -0.00098988       0.00145312       0.00124554
C        6.58736621      10.09566210       6.43338289       0.00037978       0.00049915       0.00093248
C        6.58915792      15.88354976       6.38479150       0.00295025      -0.00098236      -0.00662127
C        5.72218798      13.70508686       7.23056696      -0.00138767       0.00062754       0.00059328
O        5.75906388       9.52405998       7.22187738       0.00269459      -0.00045471       0.00251409
C        6.58510658      11.58759391       6.42046295       0.00032792       0.00114680      -0.00085780
H        8.13185371      11.71002575       4.92874582      -0.00047358       0.00180298       0.00069334
O        5.77225783      16.47751179       7.15596782      -0.01456337      -0.00998303       0.00033061
O        7.42284037       9.52284415       5.65069241      -0.00006162       0.00105790      -0.00046410
O        7.42097068      16.48043232       5.59409127       0.00327670       0.00550997       0.00263927
H        5.03663202      11.77829850       7.91284798      -0.00095048       0.00155796      -0.00219644
C        7.45540332      12.26329070       5.57499781      -0.00020886       0.00169597       0.00018774
C      -14.33896456       6.50157914       6.47403881       0.00010542       0.00186225      -0.00095528
O      -14.18989879       8.38359498       4.94906313       0.00059459       0.00115621      -0.00147610
H      -15.17408423       8.20871601       5.05744458       0.00072841      -0.00000505      -0.00330111
C      -12.24776923       5.55905938       7.26737930      -0.00018598       0.00130969      -0.00147596
H      -14.20552442       4.84692558       7.82665503       0.00032364       0.00117547      -0.00125988
C      -13.59306206       7.45508455       5.71097705       0.00034649       0.00120518      -0.00120254
C      -10.02600853       6.49995581       6.53195905       0.00021369       0.00107730      -0.00060361
C      -15.81554657       6.50446004       6.46061515       0.00026304       0.00337623       0.00054528
C      -13.63900062       5.56977719       7.24315451      -0.00021378       0.00146633      -0.00130076
O       -9.44977220       5.62647301       7.26825879      -0.00020066       0.00172290       0.00052728
C      -11.51740457       6.49637961       6.51541186       0.00004106       0.00119550      -0.00139398
H      -11.63667473       8.16611140       5.16250089       0.00074339       0.00050940      -0.00176581
O      -16.41342304       5.66278142       7.20176431      -0.00009000       0.00941392       0.00624429
O       -9.45067665       7.38167866       5.80196662       0.00039469       0.00050233      -0.00108294
O      -16.40933249       7.36368104       5.69696533       0.00037212      -0.00108908      -0.00421418
H      -11.71478357       4.82548390       7.86927791       0.00036317       0.00145006      -0.00160857
C      -12.19121272       7.43617122       5.74629064       0.00026064       0.00107363      -0.00161727
C       -6.36718500      11.64324946       6.51918111       0.00002156      -0.00000005       0.00010447
O       -4.71427961      11.80997739       8.28772463      -0.00093653       0.00089708       0.00096146
H       -4.84875784      10.82413746       8.14513717      -0.00067741       0.00106641       0.00091908
C       -7.22470409      13.72442836       5.61116204       0.00043389       0.00078522       0.00011464
H       -7.82374685      11.76000887       4.95372764       0.00123749      -0.00060732      -0.00029581
C       -5.54036268      12.39841288       7.40991055      -0.00099030       0.00032622      -0.00004690
C       -6.43674859      15.95545932       6.48156386       0.00077837       0.00410058       0.00090382
C       -6.35812532      10.16684417       6.53774432       0.00041625       0.00024723       0.00072194
C       -7.19576186      12.33360646       5.63227601       0.00053190       0.00039814      -0.00019436
O       -7.20877301      16.52141831       5.63034757      -0.00506529       0.00069306       0.00242443
C       -6.41462775      14.46411155       6.49019135      -0.00070634       0.00308199       0.00087968
H       -4.94896316      14.36240277       8.06373732      -0.00116977       0.00097915       0.00021122
O       -7.12457414       9.56510004       5.72211194       0.00052788      -0.00001125       0.00092967
O       -5.67935043      16.54005919       7.33126278       0.00405507       0.00793609      -0.00476152
O       -5.57288160       9.57795673       7.38072461       0.00027659       0.00016742       0.00069320
H       -7.87544364      14.24963647       4.91478031       0.00029840      -0.00105388      -0.00145618
C       -5.57989125      13.79999004       7.38042751      -0.00124455       0.00103983       0.00004210
C      -11.55455431      -6.52907885       6.44521641       0.00089641      -0.00363763      -0.00372519
O      -11.68133500      -8.30015616       4.79138517      -0.00259855      -0.00506618      -0.00346712
H      -10.69897077      -8.13649049       4.93042945      -0.00253041      -0.00555512      -0.00440918
C      -13.65785824      -5.64570163       7.27460903       0.00376300      -0.00041125      -0.00181830
H      -11.70973189      -4.96791463       7.90377969       0.00535228      -0.00436629      -0.00519180
C      -12.28916376      -7.42942460       5.61045416      -0.00095611      -0.00353560      -0.00308806
C      -15.86801888      -6.53702410       6.45245926       0.00061577       0.00196195       0.00036990
C      -10.07689380      -6.52561017       6.44624504       0.00008958      -0.00535342      -0.00362771
C      -12.26643688      -5.65190437       7.26649382       0.00313004      -0.00282062      -0.00360970
O      -16.44864047      -5.68130054       7.20623225       0.00377784       0.00474293       0.00160267
C      -14.37646651      -6.53304348       6.45398809       0.00122211       0.00124793      -0.00076816
H      -14.23682143      -8.10934665       4.99508812      -0.00427274      -0.00129643       0.00008178
O       -9.49006746      -5.71672573       7.22778911       0.00030463      -0.00685662      -0.00228929
O      -16.43665340      -7.39750437       5.69466895      -0.00094616       0.00301439       0.00379334
O       -9.47369941      -7.34990957       5.64857340       0.00015918      -0.00409732      -0.00434872
H      -14.20095458      -4.95455972       7.91645742       0.00623551       0.00013271      -0.00108891
C      -13.69140812      -7.41801586       5.63198083      -0.00140587      -0.00126473      -0.00123306
C        6.48256040      -6.58938110      14.36626870      -0.00101090      -0.00076342       0.00054063
O        4.76592827      -8.29696725      14.21636504      -0.00157608      -0.00198502       0.00040851
H        4.90717811      -8.14916573      15.20070756      -0.00136050      -0.00129134      -0.00064808
C        7.37973608      -5.74072277      12.27815595      -0.00207951      -0.00179692      -0.00008985
H        8.00259139      -5.08581970      14.23553021      -0.00210338      -0.00163892       0.00128927
C        5.62253752      -7.45536415      13.61890160      -0.00082668      -0.00118375       0.00141186
C        6.55688869      -6.59049703      10.05530084      -0.00299799       0.00687328       0.00367648
C        6.46432712      -6.58481517      15.84251810      -0.00194891      -0.00160252       0.00056222
C        7.34818493      -5.74480726      13.66872062      -0.00165928      -0.00141502       0.00065661
O        7.38034829      -5.78652360       9.49626842      -0.00553952       0.00542525      -0.00809791
C        6.53272553      -6.59163641      11.54620107      -0.00249868      -0.00094513       0.00046244
H        5.00267607      -8.10043319      11.65952910      -0.00207719      -0.00309435       0.00069349
O        7.24692058      -5.77860495      16.43623366      -0.00152415      -0.00182634       0.00092437
O        5.75036335      -7.39159963       9.46549658      -0.01302621      -0.00153838       0.01509925
O        5.65505213      -7.39866860      16.43954006      -0.00226899      -0.00120720       0.00015928
H        8.06031846      -5.07789774      11.74726380      -0.00080824      -0.00080541       0.00154736
C        5.66155589      -7.44007292      12.21708299      -0.00225590      -0.00236760       0.00130732
C        6.49866784      11.57637547      -6.60830644      -0.00195585       0.00206445       0.00094713
O        4.85196663      11.71823487      -8.38501153       0.00184480       0.00129269      -0.00172442
H        4.99097197      10.73412126      -8.23162416      -0.00048414       0.00135442      -0.00033426
C        7.32822884      13.67004452      -5.70468271      -0.00031658       0.00126761      -0.00024304
H        7.94651013      11.71455967      -5.03725870       0.00045183      -0.00001217       0.00060481
C        5.66851521      12.31866692      -7.50693251      -0.00046229       0.00231016      -0.00099378
C        6.51797815      15.88878305      -6.58533928      -0.00066145       0.00002849       0.00014665
C        6.49373139      10.09936416      -6.60967629      -0.00359387       0.00193245       0.00275618
C        7.31584649      12.27905516      -5.72082809       0.00001389       0.00138592       0.00080853
O        7.28332197      16.46185490      -5.73479942      -0.00166893       0.00057067       0.00069483
C        6.51375433      14.39711994      -6.59068567      -0.00034479       0.00059600      -0.00052265
H        5.05957493      14.27378317      -8.17256629       0.00062909       0.00006745      -0.00083655
O        7.25851662       9.50695520      -5.78692523      -0.00322540       0.00236372       0.00635479
O        5.75319300      16.46445549      -7.43480059      -0.00021233       0.00024496      -0.00005602
O        5.70923192       9.50306383      -7.44814463      -0.00530841       0.00214309       0.00032329
H        7.96880926      14.20517939      -5.00642495      -0.00052362       0.00077529      -0.00021304
C        5.69278193      13.72079955      -7.48374524       0.00024181       0.00155362      -0.00078564
C        6.63310649       6.51912165      11.56141930       0.00749148      -0.00455762      -0.00332462
O        8.40412347       4.86601358      11.69770119       0.00538363       0.00159860       0.00697507
H        8.26112253       5.02356965      10.71447047       0.00634498      -0.00660279       0.00866984
C        5.72195823       7.33038899      13.65917552      -0.00040745       0.00351677      -0.00865313
H        5.05565193       7.96118980      11.70736563       0.00898388      -0.00450811      -0.00314781
C        7.52508221       5.67931407      12.30142608       0.00358631       0.00219019      -0.00419020
C        6.59442642       6.50685374      15.87473104      -0.00711917      -0.00164905       0.01190600
C        6.64456200       6.52702498      10.08372754       0.00183436      -0.01239066       0.00861666
C        5.74030112       7.32785413      12.26790956       0.00779279      -0.00334116      -0.00758065
O        5.75664564       7.28816298      16.44500509      -0.01697901      -0.00415307       0.00032463
C        6.60531625       6.51042660      14.38326636       0.00102013       0.00015210      -0.00169558
H        8.17859752       5.04733664      14.25274213       0.00394961      -0.00019366       0.00855177
O        5.81705353       7.28484515       9.49145603       0.00277939      -0.02285982      -0.00208951
O        7.42470665       5.72365487      16.45362022      -0.00120797      -0.00352215       0.00275011
O        7.49957313       5.75765384       9.48617870      -0.00403196      -0.00890928       0.00156803
H        5.02330865       7.96777038      14.19754134      -0.00190039       0.00383180      -0.00208061
C        7.49542892       5.68957698      13.70357642       0.00503666      -0.00021552      -0.00190813
C       -6.54284252      11.61797537      -6.48865003       0.00026644       0.00022612       0.00039744
O       -8.22631972      11.77403684      -4.74848823      -0.00154676       0.00073608      -0.00132005
H       -8.07980082      10.78892389      -4.88723326      -0.00075660       0.00069133       0.00031753
C       -5.69174320      13.70459673      -7.38922416       0.00036737       0.00012079       0.00029885
H       -5.05456057      11.74392631      -8.02258702       0.00052642       0.00022393       0.00029360
C       -7.39689776      12.36770519      -5.61917237      -0.00039416       0.00040747      -0.00029612
C       -6.53063057      15.93055619      -6.55395665      -0.00097024      -0.00035969      -0.00039951
C       -6.54041419      10.14075772      -6.46830103       0.00119030       0.00048624       0.00099065
C       -5.70380922      12.31370233      -7.36113667       0.00035561       0.00012608       0.00033081
O       -5.70317002      16.49815850      -7.34810520      -0.00088593       0.00012428      -0.00088517
C       -6.53385615      14.43886512      -6.53569869      -0.00011789      -0.00010977      -0.00022464
H       -8.03649331      14.32789159      -4.99870334      -0.00032290       0.00011580      -0.00024312
O       -5.75455356       9.54278783      -7.26684261       0.00017641      -0.00004993       0.00003720
O       -7.35885842      16.51094468      -5.76984682      -0.00023736      -0.00010620      -0.00127057
O       -7.33874711       9.55016708      -5.63842909       0.00253268       0.00041785       0.00297204
H       -5.03049953      14.23412867      -8.07228820       0.00073040       0.00032091       0.00058823
C       -7.38020716      13.76956254      -5.66110961      -0.00024163       0.00023627      -0.00012296
C      -14.43525686       6.51419240      -6.53847217       0.00055050      -0.00940354      -0.00879016
O      -14.28811051       4.73249153      -8.17919593       0.00405575      -0.00233140      -0.00540365
H      -15.27287002       4.88901823      -8.04209161       0.00284761      -0.00896020      -0.00309367
C      -12.34130680       7.41182949      -5.70123818      -0.00181601      -0.00097272      -0.00293105
H      -14.29650051       8.08430473      -5.08731164      -0.00831929      -0.00660019      -0.00601347
C      -13.69030059       5.61444827      -7.36507667       0.00345357      -0.00548654      -0.00767814
C      -10.12065536       6.53087749      -6.51008191      -0.00078672       0.00091300       0.00376297
C      -15.91299326       6.50638956      -6.54870669      -0.00086538      -0.00895030      -0.00360044
C      -13.73290821       7.39958156      -5.71774086      -0.00359018      -0.00644236      -0.00704515
O       -9.54918270       7.35958973      -5.72052412       0.00002817       0.00105975       0.00346170
C      -11.61261642       6.52813312      -6.51719181      -0.00071412      -0.00229092      -0.00305196
H      -11.73665398       4.94848917      -7.97472918       0.00682998       0.00275208       0.00162801
O      -16.51254565       7.32689557      -5.78797434      -0.00311211      -0.00492044      -0.00512640
O       -9.54418476       5.70272333      -7.29756248      -0.00110660      -0.00108648       0.00572665
O      -16.50426810       5.66188941      -7.33290340       0.00304553      -0.01561205      -0.00081456
H      -11.80487317       8.10561010      -5.05681177      -0.00730797       0.00387724       0.00202312
C      -12.28824560       5.63726757      -7.34035161       0.00217402      -0.00123723      -0.00358864
C       -6.47599239      -6.52224114     -14.47737551       0.00153472      -0.00186809      -0.00143527
O       -4.67417391      -8.13984528     -14.31846077       0.00167902      -0.00018267       0.00008387
H       -4.82168053      -8.00397971     -15.30412469       0.00064177      -0.00093384       0.00034019
C       -7.39618073      -5.68823048     -12.39219299       0.00031656      -0.00156557      -0.00168273
H       -8.06162874      -5.08894389     -14.35455639       0.00040830      -0.00197917      -0.00008013
C       -5.57028478      -7.33663770     -13.72700255       0.00064565      -0.00039419       0.00001662
C       -6.52277181      -6.49050051     -10.16697269      -0.00104959       0.00128128       0.00400340
C       -6.46498605      -6.53387143     -15.95505731       0.00272142      -0.00144758       0.00005739
C       -7.37438948      -5.70941385     -13.78313861       0.00110311      -0.00241037      -0.00196908
O       -7.37429616      -5.72358833      -9.59558940      -0.00116976       0.00483148       0.00470860
C       -6.50801706      -6.49344722     -11.65758381       0.00028104       0.00066518       0.00236492
H       -4.91147079      -7.93304877     -11.76657893       0.00155371      -0.00064687       0.00218338
O       -7.30046591      -5.79189621     -16.55603356       0.00242684      -0.00164698      -0.00014947
O       -5.67789210      -7.25853843      -9.58906106      -0.00123953      -0.00131977       0.00394385
O       -5.60355855      -7.30164803     -16.54181709       0.00316582       0.00028500      -0.00220630
H       -8.10070635      -5.04949254     -11.86310036      -0.00064750      -0.00210404      -0.00078913
C       -5.60329619      -7.30845933     -12.32545517       0.00082534      -0.00025074       0.00134786
C       -6.49948661       6.54816943     -11.58851787      -0.00112698      -0.00061567       0.00105243
O       -8.29037578       4.91861553     -11.75563104       0.00009365      -0.00127549       0.00135474
H       -8.14145548       5.04791395     -10.76945739       0.00016000      -0.00022269       0.00139942
C       -5.58287371       7.39375914     -13.67104472      -0.00069300      -0.00050100       0.00123606
H       -4.92784899       7.99743571     -11.70658343      -0.00134486      -0.00036049       0.00142186
C       -7.39638580       5.72731774     -12.34300294      -0.00045782      -0.00105747       0.00086834
C       -6.43537446       6.57637265     -15.90064951       0.00023334      -0.00045042       0.00047065
C       -6.51083054       6.52956902     -10.11121159      -0.00135178      -0.00073840       0.00110818
C       -5.60783053       7.37082839     -12.27996851      -0.00109826      -0.00048748       0.00124168
O       -5.62532959       7.38558489     -16.47137866       0.00042573      -0.00062709       0.00045332
C       -6.45834296       6.57808305     -14.40932121      -0.00009461      -0.00066739       0.00074180
H       -8.03982790       5.12177177     -14.30585005       0.00068209      -0.00110118       0.00031634
O       -5.68878557       7.28463500      -9.50528661      -0.00132498      -0.00051918       0.00085387
O       -7.23369005       5.75877678     -16.47686394       0.00011798      -0.00023963       0.00030291
O       -7.35779173       5.74370567      -9.52784554      -0.00121119      -0.00075977       0.00155752
H       -4.88448915       8.04089253     -14.19814464      -0.00068660      -0.00026401       0.00165647
C       -7.35728513       5.75440043     -13.74450923       0.00009791      -0.00096034       0.00077191
C      -11.63742300      -6.50653305      -6.52603525       0.00079494       0.00061435       0.00046796
O      -11.79240513      -8.24101650      -4.83511426       0.00096686      -0.00086599       0.00050508
H      -10.80746404      -8.10028451      -4.97826894       0.00107209      -0.00025165      -0.00098491
C      -13.72477038      -5.63648183      -7.40717132      -0.00188188       0.00041257       0.00066325
H      -11.76444175      -4.97637018      -8.01852444      -0.00139319      -0.00008001       0.00078933
C      -12.38570932      -7.38278070      -5.67791818       0.00024845      -0.00110582       0.00082737
C      -15.94823998      -6.50953339      -6.59573519      -0.00043720      -0.00018841       0.00079850
C      -10.16143338      -6.51215888      -6.51277350       0.00276245      -0.00046162       0.00052236
C      -12.33384227      -5.64461176      -7.37575484      -0.00151050      -0.00033563       0.00107198
O      -16.52577526      -5.70754188      -7.41012014      -0.00081754       0.00037491       0.00164129
C      -14.45745399      -6.49936966      -6.57350070      -0.00062013      -0.00037930       0.00075949
H      -14.34438171      -8.03029381      -5.06455850      -0.00031900      -0.00132942       0.00049903
O       -9.56324524      -5.69246088      -7.27770187       0.00525142       0.00331730      -0.00099670
O      -16.52023859      -7.32493341      -5.79248509      -0.00016743      -0.00093186       0.00026739
O       -9.56887376      -7.34975301      -5.72469647       0.00025855      -0.00199229      -0.00003381
H      -14.25546955      -4.96287344      -8.07711995      -0.00125704       0.00106461       0.00101014
C      -13.78707058      -7.36118833      -5.71487559      -0.00043093      -0.00100711       0.00045034
C        6.56316828      -1.45694050      -6.55887644       0.00239740       0.00145677      -0.00317109
O        8.06696374      -1.31351195      -8.45790212       0.00243317       0.00377488      -0.00280438
H        7.93204670      -2.29743305      -8.30021226       0.00354898       0.00304170      -0.00420151
C        5.81096558       0.63787273      -5.59033002       0.00263065       0.00132476      -0.00110755
H        5.23396770      -1.31767137      -4.88587627       0.00366219      -0.00060442      -0.00242761
C        7.32745069      -0.71393948      -7.51333143       0.00229564       0.00285568      -0.00273752
C        6.56411971       2.85769920      -6.52265797       0.00177559       0.00266323       0.00076737
C        6.55566335      -2.93433405      -6.57276091       0.00262741       0.00121935      -0.00433789
C        5.81633351      -0.75349106      -5.61150606       0.00280221       0.00142233      -0.00203420
O        5.82728731       3.43240564      -5.64833531      -0.00393724       0.00228910      -0.00718030
C        6.56465426       1.36542369      -6.52869043       0.00243353       0.00267111      -0.00001725
H        7.90341952       1.24005265      -8.20923596       0.00109280       0.00349996      -0.00075155
O        5.85239326      -3.53000885      -5.70058649       0.00209072       0.00091054      -0.00471381
O        7.30387900       3.43260679      -7.39520642       0.00820455       0.00194677       0.00712512
O        7.26966458      -3.52956989      -7.47560492       0.00318444       0.00189819      -0.00436416
H        5.22262813       1.17319693      -4.84750385       0.00231017      -0.00022218      -0.00123021
C        7.31655790       0.68823234      -7.47975953       0.00166155       0.00305332      -0.00080998
C       -6.52609197      -1.41494468      -6.55179224      -0.00266703       0.00075636       0.00026016
O       -8.10551767      -1.25478194      -8.38600815      -0.01106177      -0.00132803      -0.01071274
H       -7.99524320      -2.23970624      -8.21754142      -0.00353829       0.00115064      -0.00337846
C       -5.71065939       0.67111940      -5.61660330      -0.00102174      -0.00005458      -0.00369572
H       -5.12534955      -1.28938766      -4.93474684      -0.00953388      -0.00435032      -0.01121076
C       -7.31644318      -0.66352328      -7.47712517      -0.00707901      -0.00224369      -0.00745472
C       -6.47916323       2.89776509      -6.51681340      -0.00137441      -0.00035935       0.00305791
C       -6.53822995      -2.89244237      -6.56568393       0.00489139       0.00348633       0.00491053
C       -5.73131968      -0.72013337      -5.63693465      -0.00324468       0.00291090      -0.00418561
O       -5.72895373       3.46262165      -5.64770311       0.00089989       0.00016315       0.00029646
C       -6.48893943       1.40629428      -6.52854400       0.00150145      -0.00024858      -0.00060259
H       -7.88699695       1.29543991      -8.16168489      -0.00033106       0.00839415      -0.00065574
O       -5.76587958      -3.49322185      -5.75869043      -0.00359751      -0.00471016      -0.00555957
O       -7.22345314       3.48106090      -7.37929389      -0.00485626      -0.00031224       0.00646582
O       -7.33627511      -3.48056534      -7.40061827       0.00214064       0.00311576       0.00058997
H       -5.09184537       1.20212912      -4.89564740       0.00056959      -0.01032164      -0.00167705
C       -7.28218650       0.73807521      -7.45141530      -0.00172277      -0.00114906      -0.00341705
C        6.54329212       6.46659925      -1.46226197      -0.00133246       0.00020999       0.00056695
O        4.71127154       4.88454257      -1.29680404      -0.00181953       0.00029180       0.00031033
H        4.85726664       5.01838242      -2.28281619      -0.00166377      -0.00158239       0.00042487
C        7.50888383       7.25625402       0.62023911       0.00018537      -0.00013152      -0.00134205
H        8.16664335       7.85765729      -1.34374575       0.00015534      -0.00065883      -0.00256506
C        5.62773647       5.66670285      -0.70806554      -0.00174914      -0.00019360       0.00049303
C        6.62582094       6.47452586       2.85008636      -0.00099484       0.00136759      -0.00181574
C        6.51297588       6.47093060      -2.93950980      -0.00193588       0.00004512       0.00036543
C        7.47020880       7.24917401      -0.77065850       0.00034465       0.00027054      -0.00075492
O        7.50691634       7.20720422       3.42020785       0.00097069      -0.00071432      -0.00199944
C        6.60514436       6.47228892       1.35863614      -0.00031801       0.00056852      -0.00155830
H        4.97080323       5.07543490       1.25499710      -0.00048235       0.00065432      -0.00060181
O        7.33905718       7.22322216      -3.54289638      -0.00216027       0.00426157       0.00098739
O        5.75349168       5.73883223       3.42918951      -0.00354151       0.00417134      -0.00152758
O        5.64685801       5.70811715      -3.52557133      -0.00145037      -0.00404551       0.00078842
H        8.23736317       7.86947124       1.14719302       0.00017279      -0.00090321      -0.00213523
C        5.67358544       5.68549007       0.69357279      -0.00059076       0.00035729      -0.00003778
C        6.59818915      -1.43757035       6.50973266       0.00269396       0.00249377       0.00428109
O        8.24429926      -1.31280807       8.28742613       0.00049459       0.00314772       0.00486232
H        8.09786838      -2.29544649       8.13085421       0.00140346       0.00305567      -0.00084841
C        5.77659659       0.66448518       5.61950684      -0.00089975      -0.00194161       0.00051980
H        5.15185727      -1.28369066       4.93750917       0.00341671      -0.00174440       0.00619673
C        7.43224443      -0.70335651       7.41130307       0.00123463       0.00211182       0.00418756
C        6.59487231       2.87503857       6.50651767      -0.00079373       0.00269001      -0.00125905
C        6.59495553      -2.91530194       6.50550941       0.00215247       0.00060960      -0.00453778
C        5.78429188      -0.72660358       5.62571836       0.00191162      -0.00102200       0.00375296
O        5.81656092       3.44855100       5.66853158      -0.00322006       0.00101739      -0.00060487
C        6.59526466       1.38369158       6.50837211      -0.00169075       0.00083064      -0.00027771
H        8.05481074       1.24509110       8.08430400      -0.00049160       0.00420729       0.00213803
O        5.82917603      -3.49841739       5.67831328       0.01789891      -0.00728166       0.00826771
O        7.37307404       3.45182355       7.34466657       0.00181408       0.00137011      -0.00358617
O        7.37328770      -3.51998968       7.34449928       0.00555212       0.00628639       0.00023975
H        5.13637363       1.20607557       4.92590840      -0.00102882      -0.00140379      -0.00048153
C        7.41641696       0.69914118       7.39480315      -0.00057815       0.00245842       0.00198740
C        6.55118389      -6.59747780      -1.47354394      -0.00087440       0.00035212       0.00036265
O        8.34397334      -8.22612270      -1.33300523      -0.00092789      -0.00073962       0.00078639
H        8.18395532      -8.09322024      -2.31694244      -0.00030740      -0.00087357       0.00092161
C        5.65147388      -5.76353165       0.62008305       0.00149908      -0.00125249       0.00187228
H        4.97253632      -5.15793344      -1.33545641      -0.00043777       0.00039542       0.00049905
C        7.45820885      -7.41855979      -0.73191007      -0.00039474      -0.00072783       0.00006724
C        6.54918355      -6.55725233       2.83874753       0.00251434       0.00550196       0.00315655
C        6.55244147      -6.60115142      -2.95103440       0.00038635       0.00014305       0.00033965
C        5.66164971      -5.78242102      -0.77083320      -0.00054075       0.00020084       0.00172740
O        5.72905515      -5.76094326       3.41181183       0.01782520       0.00335158       0.01112408