448
Lattice="26.065952069778827 0.0 0.0 0.0 26.065952069778827 0.0 0.0 0.0 26.065952069778827" Properties=species:S:1:pos:R:3:forces:R:3 energy=-3064.9014955186594 stress="4.374449570485679e-06 -1.9869090217109283e-06 6.5396755559622885e-06 -1.9869090217109283e-06 7.400628679343139e-06 3.030730052805893e-06 6.5396755559622885e-06 3.030730052805893e-06 5.83069539546394e-07" pbc="T T T"
C        6.58840120      14.40754770       6.39065174      -0.00052988       0.00134418       0.00093734
O        8.33590852      14.26547409       4.71217345      -0.00054951       0.00010288       0.00073061
H        8.18587276      15.24928703       4.85609921       0.00362494      -0.00001517      -0.00291103
C        5.71517723      12.31425703       7.25211108      -0.00056275       0.00058263      -0.00107544
H        5.04896920      14.26913357       7.87258528      -0.00191383       0.00097848       0.00173000
C        7.47353025      13.66516522       5.54546657      -0.00099008       0.00145366       0.00124573
C        6.58736622      10.09566208       6.43338288       0.00037984       0.00049908       0.00093247
C        6.58915792      15.88354992       6.38479149       0.00295034      -0.00098250      -0.00662127
C        5.72218799      13.70508688       7.23056695      -0.00138754       0.00062792       0.00059315
O        5.75906389       9.52405998       7.22187738       0.00269458      -0.00045473       0.00251410
C        6.58510658      11.58759391       6.42046295       0.00032797       0.00114687      -0.00085786
H        8.13185371      11.71002575       4.92874581      -0.00047365       0.00180311       0.00069339
O        5.77225785      16.47751199       7.15596781      -0.01456332      -0.00998346       0.00033059
O        7.42284038       9.52284413       5.65069242      -0.00006152       0.00105781      -0.00046406
O        7.42097069      16.48043251       5.59409127       0.00327694       0.00550963       0.00263919
H        5.03663202      11.77829850       7.91284798      -0.00095037       0.00155810      -0.00219654
C        7.45540332      12.26329070       5.57499781      -0.00020893       0.00169636       0.00018781
C      -14.33896462       6.50157913       6.47403881       0.00010493       0.00186226      -0.00095527
O      -14.18989881       8.38359498       4.94906313       0.00059452       0.00115605      -0.00147598
H      -15.17408424       8.20871600       5.05744459       0.00072822      -0.00000504      -0.00330113
C      -12.24776923       5.55905938       7.26737929      -0.00018635       0.00130977      -0.00147604
H      -14.20552442       4.84692558       7.82665503       0.00032357       0.00117547      -0.00125988
C      -13.59306207       7.45508453       5.71097706       0.00034600       0.00120496      -0.00120236
C      -10.02600851       6.49995580       6.53195906       0.00021380       0.00107727      -0.00060351
C      -15.81554672       6.50446004       6.46061515       0.00026332       0.00337631       0.00054522
C      -13.63900064       5.56977720       7.24315450      -0.00021415       0.00146644      -0.00130085
O       -9.44977217       5.62647302       7.26825881      -0.00020043       0.00172297       0.00052741
C      -11.51740457       6.49637960       6.51541187       0.00004103       0.00119549      -0.00139399
H      -11.63667472       8.16611140       5.16250089       0.00074326       0.00050931      -0.00176575
O      -16.41342325       5.66278143       7.20176430      -0.00008950       0.00941392       0.00624431
O       -9.45067664       7.38167866       5.80196662       0.00039469       0.00050231      -0.00108294
O      -16.40933266       7.36368102       5.69696532       0.00037248      -0.00108896      -0.00421430
H      -11.71478357       4.82548390       7.86927791       0.00036305       0.00145015      -0.00160865
C      -12.19121273       7.43617122       5.74629064       0.00026029       0.00107352      -0.00161718
C       -6.36718499      11.64324946       6.51918111       0.00002159       0.00000006       0.00010448
O       -4.71427961      11.80997739       8.28772463      -0.00093667       0.00089725       0.00096131
H       -4.84875783      10.82413746       8.14513717      -0.00067744       0.00106646       0.00091905
C       -7.22470407      13.72442839       5.61116205       0.00043405       0.00078570       0.00011482
H       -7.82374685      11.76000886       4.95372764       0.00123763      -0.00060714      -0.00029567
C       -5.54036268      12.39841289       7.40991054      -0.00099038       0.00032660      -0.00004699
C       -6.43674858      15.95545949       6.48156386       0.00077843       0.00410019       0.00090388
C       -6.35812532      10.16684415       6.53774433       0.00041625       0.00024719       0.00072199
C       -7.19576185      12.33360646       5.63227602       0.00053201       0.00039859      -0.00019424
O       -7.20877300      16.52141854       5.63034760      -0.00506540       0.00069238       0.00242432
C       -6.41462774      14.46411164       6.49019135      -0.00070632       0.00308244       0.00087969
H       -4.94896316      14.36240276       8.06373732      -0.00116978       0.00097920       0.00021121
O       -7.12457414       9.56510003       5.72211194       0.00052790      -0.00001126       0.00092968
O       -5.67935043      16.54005944       7.33126276       0.00405515       0.00793549      -0.00476131
O       -5.57288160       9.57795671       7.38072462       0.00027655       0.00016732       0.00069333
H       -7.87544364      14.24963646       4.91478031       0.00029843      -0.00105381      -0.00145614
C       -5.57989126      13.79999006       7.38042749      -0.00124466       0.00104025       0.00004198
C      -11.55455430      -6.52907885       6.44521641       0.00089638      -0.00363760      -0.00372521
O      -11.68133500      -8.30015616       4.79138517      -0.00259871      -0.00506601      -0.00346697
H      -10.69897077      -8.13649049       4.93042945      -0.00253044      -0.00555508      -0.00440915
C      -13.65785827      -5.64570164       7.27460902       0.00376253      -0.00041142      -0.00181847
H      -11.70973189      -4.96791463       7.90377969       0.00535210      -0.00436643      -0.00519193
C      -12.28916376      -7.42942460       5.61045416      -0.00095647      -0.00353548      -0.00308796
C      -15.86801906      -6.53702411       6.45245926       0.00061617       0.00196188       0.00036989
C      -10.07689378      -6.52561017       6.44624504       0.00008970      -0.00535348      -0.00362767
C      -12.26643688      -5.65190438       7.26649381       0.00312961      -0.00282074      -0.00360982
O      -16.44864069      -5.68130058       7.20623225       0.00377850       0.00474304       0.00160278
C      -14.37646660      -6.53304348       6.45398809       0.00122166       0.00124792      -0.00076819
H      -14.23682143      -8.10934665       4.99508811      -0.00427279      -0.00129642       0.00008179
O       -9.49006743      -5.71672573       7.22778912       0.00030477      -0.00685668      -0.00228919
O      -16.43665364      -7.39750435       5.69466895      -0.00094556       0.00301418       0.00379325
O       -9.47369939      -7.34990958       5.64857341       0.00015931      -0.00409744      -0.00434869
H      -14.20095458      -4.95455972       7.91645742       0.00623545       0.00013268      -0.00108894
C      -13.69140814      -7.41801585       5.63198084      -0.00140628      -0.00126461      -0.00123295
C        6.48256041      -6.58938109      14.36626877      -0.00101093      -0.00076338       0.00054126
O        4.76592827      -8.29696725      14.21636506      -0.00157590      -0.00198484       0.00040861
H        4.90717811      -8.14916573      15.20070757      -0.00136051      -0.00129133      -0.00064785
C        7.37973608      -5.74072277      12.27815595      -0.00207964      -0.00179702      -0.00008949
H        8.00259139      -5.08581969      14.23553021      -0.00210339      -0.00163893       0.00128933
C        5.62253753      -7.45536413      13.61890162      -0.00082647      -0.00118351       0.00141239
C        6.55688869      -6.59049703      10.05530081      -0.00299796       0.00687321       0.00367620
C        6.46432712      -6.58481516      15.84251827      -0.00194889      -0.00160265       0.00056209
C        7.34818491      -5.74480727      13.66872065      -0.00165943      -0.00141514       0.00065700
O        7.38034830      -5.78652360       9.49626839      -0.00553944       0.00542520      -0.00809811
C        6.53272554      -6.59163641      11.54620105      -0.00249872      -0.00094513       0.00046239
H        5.00267607      -8.10043319      11.65952910      -0.00207711      -0.00309428       0.00069364
O        7.24692059      -5.77860497      16.43623390      -0.00152403      -0.00182640       0.00092407
O        5.75036336      -7.39159963       9.46549655      -0.01302613      -0.00153844       0.01509911
O        5.65505215      -7.39866861      16.43954025      -0.00226906      -0.00120745       0.00015902
H        8.06031846      -5.07789774      11.74726380      -0.00080834      -0.00080551       0.00154750
C        5.66155589      -7.44007292      12.21708299      -0.00225580      -0.00236748       0.00130768
C        6.49866784      11.57637546      -6.60830644      -0.00195588       0.00206451       0.00094715
O        4.85196663      11.71823487      -8.38501153       0.00184496       0.00129286      -0.00172425
H        4.99097197      10.73412126      -8.23162416      -0.00048411       0.00135445      -0.00033422
C        7.32822882      13.67004455      -5.70468272      -0.00031675       0.00126810      -0.00024321
H        7.94651013      11.71455967      -5.03725870       0.00045171      -0.00001200       0.00060468
C        5.66851522      12.31866693      -7.50693251      -0.00046218       0.00231053      -0.00099364
C        6.51797816      15.88878324      -6.58533929      -0.00066139       0.00002822       0.00014661
C        6.49373140      10.09936414      -6.60967629      -0.00359382       0.00193230       0.00275612
C        7.31584649      12.27905516      -5.72082810       0.00001377       0.00138637       0.00080841
O        7.28332198      16.46185516      -5.73479946      -0.00166871       0.00057025       0.00069488
C        6.51375433      14.39712003      -6.59068567      -0.00034479       0.00059655      -0.00052261
H        5.05957493      14.27378317      -8.17256629       0.00062911       0.00006750      -0.00083652
O        7.25851663       9.50695517      -5.78692524      -0.00322530       0.00236357       0.00635473
O        5.75319300      16.46445573      -7.43480057      -0.00021241       0.00024437      -0.00005623
O        5.70923192       9.50306381      -7.44814464      -0.00530836       0.00214301       0.00032318
H        7.96880926      14.20517939      -5.00642495      -0.00052366       0.00077535      -0.00021308
C        5.69278194      13.72079958      -7.48374523       0.00024196       0.00155408      -0.00078547
C        6.63310649       6.51912164      11.56141930       0.00749149      -0.00455766      -0.00332453
O        8.40412347       4.86601358      11.69770119       0.00538348       0.00159874       0.00697523
H        8.26112253       5.02356965      10.71447047       0.00634496      -0.00660277       0.00866990
C        5.72195824       7.33038897      13.65917555      -0.00040728       0.00351662      -0.00865266
H        5.05565193       7.96118980      11.70736563       0.00898402      -0.00450825      -0.00314763
C        7.52508221       5.67931407      12.30142609       0.00358620       0.00219028      -0.00418982
C        6.59442642       6.50685374      15.87473121      -0.00711914      -0.00164911       0.01190560
C        6.64456201       6.52702498      10.08372752       0.00183441      -0.01239067       0.00861664
C        5.74030113       7.32785412      12.26790957       0.00779291      -0.00334128      -0.00758021
O        5.75664566       7.28816296      16.44500531      -0.01697914      -0.00415292       0.00032399
C        6.60531625       6.51042660      14.38326645       0.00102014       0.00015208      -0.00169515
H        8.17859752       5.04733664      14.25274213       0.00394960      -0.00019365       0.00855183
O        5.81705354       7.28484515       9.49145603       0.00277943      -0.02285986      -0.00208950
O        7.42470663       5.72365487      16.45362046      -0.00120771      -0.00352225       0.00274954
O        7.49957314       5.75765385       9.48617868      -0.00403186      -0.00890925       0.00156794
H        5.02330865       7.96777038      14.19754134      -0.00190036       0.00383177      -0.00208054
C        7.49542891       5.68957699      13.70357644       0.00503654      -0.00021542      -0.00190770
C       -6.54284252      11.61797537      -6.48865003       0.00026644       0.00022629       0.00039744
O       -8.22631972      11.77403684      -4.74848823      -0.00154663       0.00073626      -0.00132019
H       -8.07980082      10.78892389      -4.88723326      -0.00075658       0.00069140       0.00031751
C       -5.69174321      13.70459675      -7.38922414       0.00036723       0.00012126       0.00029899
H       -5.05456057      11.74392630      -8.02258702       0.00052630       0.00022410       0.00029372
C       -7.39689776      12.36770519      -5.61917237      -0.00039408       0.00040786      -0.00029622
C       -6.53063057      15.93055636      -6.55395665      -0.00097022      -0.00036016      -0.00039950
C       -6.54041419      10.14075772      -6.46830103       0.00119030       0.00048626       0.00099066
C       -5.70380922      12.31370234      -7.36113667       0.00035552       0.00012655       0.00033089
O       -5.70317004      16.49815873      -7.34810519      -0.00088583       0.00012364      -0.00088527
C       -6.53385615      14.43886520      -6.53569869      -0.00011789      -0.00010939      -0.00022464
H       -8.03649331      14.32789159      -4.99870333      -0.00032289       0.00011586      -0.00024313
O       -5.75455356       9.54278783      -7.26684261       0.00017640      -0.00004992       0.00003721
O       -7.35885839      16.51094490      -5.76984683      -0.00023747      -0.00010689      -0.00127046
O       -7.33874711       9.55016708      -5.63842909       0.00253268       0.00041785       0.00297204
H       -5.03049953      14.23412867      -8.07228820       0.00073038       0.00032098       0.00058826
C       -7.38020715      13.76956257      -5.66110962      -0.00024152       0.00023669      -0.00012307
C      -14.43525693       6.51419241      -6.53847216       0.00054999      -0.00940360      -0.00879020
O      -14.28811053       4.73249154      -8.17919592       0.00405562      -0.00233125      -0.00540350
H      -15.27287003       4.88901824      -8.04209161       0.00284740      -0.00896021      -0.00309368
C      -12.34130680       7.41182949      -5.70123818      -0.00181643      -0.00097279      -0.00293112
H      -14.29650051       8.08430472      -5.08731164      -0.00831936      -0.00660020      -0.00601348
C      -13.69030060       5.61444828      -7.36507666       0.00345304      -0.00548634      -0.00767795
C      -10.12065536       6.53087749      -6.51008191      -0.00078673       0.00091300       0.00376297
C      -15.91299341       6.50638956      -6.54870669      -0.00086521      -0.00895039      -0.00360058
C      -13.73290823       7.39958155      -5.71774087      -0.00359060      -0.00644249      -0.00704527
O       -9.54918270       7.35958973      -5.72052412       0.00002818       0.00105975       0.00346170
C      -11.61261641       6.52813312      -6.51719181      -0.00071426      -0.00229096      -0.00305199
H      -11.73665398       4.94848916      -7.97472918       0.00682985       0.00275215       0.00162808
O      -16.51254586       7.32689555      -5.78797435      -0.00311165      -0.00492044      -0.00512639
O       -9.54418476       5.70272333      -7.29756248      -0.00110661      -0.00108647       0.00572666
O      -16.50426828       5.66188942      -7.33290342       0.00304580      -0.01561212      -0.00081482
H      -11.80487316       8.10561010      -5.05681177      -0.00730810       0.00387715       0.00202303
C      -12.28824561       5.63726757      -7.34035160       0.00217361      -0.00123717      -0.00358858
C       -6.47599239      -6.52224114     -14.47737558       0.00153475      -0.00186810      -0.00143582
O       -4.67417391      -8.13984527     -14.31846079       0.00167888      -0.00018253       0.00008377
H       -4.82168053      -8.00397970     -15.30412470       0.00064177      -0.00093385       0.00033996
C       -7.39618073      -5.68823048     -12.39219299       0.00031668      -0.00156567      -0.00168310
H       -8.06162874      -5.08894389     -14.35455639       0.00040833      -0.00197920      -0.00008018
C       -5.57028479      -7.33663769     -13.72700257       0.00064546      -0.00039401       0.00001609
C       -6.52277181      -6.49050052     -10.16697267      -0.00104957       0.00128120       0.00400355
C       -6.46498604      -6.53387144     -15.95505747       0.00272149      -0.00144766       0.00005759
C       -7.37438947      -5.70941386     -13.78313863       0.00110325      -0.00241049      -0.00196945
O       -7.37429616      -5.72358833      -9.59558940      -0.00116974       0.00483146       0.00470859
C       -6.50801706      -6.49344722     -11.65758380       0.00028112       0.00066513       0.00236488
H       -4.91147079      -7.93304877     -11.76657893       0.00155365      -0.00064681       0.00218325
O       -7.30046588      -5.79189621     -16.55603376       0.00242686      -0.00164696      -0.00014910
O       -5.67789211      -7.25853845      -9.58906103      -0.00123960      -0.00131987       0.00394407
O       -5.60355856      -7.30164804     -16.54181729       0.00316588       0.00028476      -0.00220596
H       -8.10070635      -5.04949254     -11.86310036      -0.00064739      -0.00210414      -0.00078926
C       -5.60329619      -7.30845933     -12.32545517       0.00082527      -0.00025068       0.00134749
C       -6.49948661       6.54816943     -11.58851787      -0.00112697      -0.00061567       0.00105227
O       -8.29037578       4.91861553     -11.75563104       0.00009379      -0.00127536       0.00135456
H       -8.14145548       5.04791395     -10.76945739       0.00016001      -0.00022268       0.00139936
C       -5.58287372       7.39375913     -13.67104474      -0.00069313      -0.00050114       0.00123559
H       -4.92784899       7.99743571     -11.70658342      -0.00134499      -0.00036061       0.00142168
C       -7.39638579       5.72731775     -12.34300295      -0.00045772      -0.00105739       0.00086795
C       -6.43537446       6.57637265     -15.90064968       0.00023336      -0.00045041       0.00047113
C       -6.51083054       6.52956902     -10.11121159      -0.00135179      -0.00073840       0.00110817
C       -5.60783054       7.37082839     -12.27996851      -0.00109834      -0.00048756       0.00124122
O       -5.62532960       7.38558486     -16.47137888       0.00042583      -0.00062698       0.00045395
C       -6.45834296       6.57808305     -14.40932130      -0.00009460      -0.00066739       0.00074143
H       -8.03982790       5.12177177     -14.30585004       0.00068210      -0.00110117       0.00031628
O       -5.68878557       7.28463500      -9.50528661      -0.00132498      -0.00051918       0.00085387
O       -7.23369004       5.75877680     -16.47686416       0.00011786      -0.00023973       0.00030363
O       -7.35779172       5.74370567      -9.52784554      -0.00121119      -0.00075976       0.00155752
H       -4.88448915       8.04089252     -14.19814464      -0.00068662      -0.00026403       0.00165640
C       -7.35728511       5.75440044     -13.74450926       0.00009803      -0.00096025       0.00077150
C      -11.63742299      -6.50653305      -6.52603525       0.00079481       0.00061433       0.00046800
O      -11.79240513      -8.24101650      -4.83511426       0.00096668      -0.00086584       0.00050493
H      -10.80746404      -8.10028451      -4.97826893       0.00107204      -0.00025162      -0.00098494
C      -13.72477040      -5.63648185      -7.40717130      -0.00188240       0.00041238       0.00066342
H      -11.76444175      -4.97637018      -8.01852444      -0.00139337      -0.00008014       0.00078946
C      -12.38570933      -7.38278069      -5.67791818       0.00024804      -0.00110571       0.00082727
C      -15.94824017      -6.50953340      -6.59573520      -0.00043694      -0.00018849       0.00079846
C      -10.16143337      -6.51215889      -6.51277350       0.00276253      -0.00046167       0.00052236
C      -12.33384228      -5.64461176      -7.37575484      -0.00151098      -0.00033576       0.00107210
O      -16.52577552      -5.70754191      -7.41012013      -0.00081703       0.00037499       0.00164109
C      -14.45745409      -6.49936966      -6.57350069      -0.00062071      -0.00037929       0.00075950
H      -14.34438171      -8.03029381      -5.06455850      -0.00031905      -0.00132940       0.00049901
O       -9.56324524      -5.69246088      -7.27770187       0.00525141       0.00331727      -0.00099667
O      -16.52023884      -7.32493341      -5.79248511      -0.00016695      -0.00093207       0.00026747
O       -9.56887374      -7.34975302      -5.72469647       0.00025864      -0.00199242      -0.00003385
H      -14.25546955      -4.96287343      -8.07711995      -0.00125710       0.00106457       0.00101017
C      -13.78707061      -7.36118831      -5.71487560      -0.00043141      -0.00100696       0.00045019
C        6.56316828      -1.45694051      -6.55887644       0.00239745       0.00145664      -0.00317115
O        8.06696374      -1.31351195      -8.45790212       0.00243316       0.00377483      -0.00280436
H        7.93204670      -2.29743305      -8.30021227       0.00354897       0.00304164      -0.00420149
C        5.81096558       0.63787273      -5.59033002       0.00263072       0.00132480      -0.00110763
H        5.23396770      -1.31767137      -4.88587627       0.00366221      -0.00060441      -0.00242764
C        7.32745069      -0.71393949      -7.51333143       0.00229563       0.00285566      -0.00273751
C        6.56411972       2.85769922      -6.52265798       0.00177570       0.00266340       0.00076727
C        6.55566336      -2.93433408      -6.57276092       0.00262746       0.00121922      -0.00433792
C        5.81633351      -0.75349107      -5.61150606       0.00280227       0.00142231      -0.00203428
O        5.82728731       3.43240564      -5.64833532      -0.00393726       0.00228912      -0.00718029
C        6.56465426       1.36542370      -6.52869043       0.00243358       0.00267130      -0.00001730
H        7.90341952       1.24005265      -8.20923596       0.00109281       0.00349995      -0.00075156
O        5.85239326      -3.53000886      -5.70058649       0.00209074       0.00091049      -0.00471384
O        7.30387901       3.43260684      -7.39520643       0.00820464       0.00194710       0.00712505
O        7.26966459      -3.52956993      -7.47560492       0.00318458       0.00189797      -0.00436428
H        5.22262812       1.17319693      -4.84750385       0.00231019      -0.00022219      -0.00123024
C        7.31655790       0.68823234      -7.47975953       0.00166154       0.00305337      -0.00080996
C       -6.52609197      -1.41494468      -6.55179224      -0.00266701       0.00075633       0.00026019
O       -8.10551767      -1.25478194      -8.38600815      -0.01106178      -0.00132802      -0.01071275
H       -7.99524320      -2.23970624      -8.21754142      -0.00353829       0.00115060      -0.00337846
C       -5.71065939       0.67111940      -5.61660330      -0.00102174      -0.00005459      -0.00369572
H       -5.12534955      -1.28938766      -4.93474684      -0.00953389      -0.00435031      -0.01121077
C       -7.31644318      -0.66352328      -7.47712517      -0.00707902      -0.00224368      -0.00745472
C       -6.47916323       2.89776509      -6.51681340      -0.00137441      -0.00035935       0.00305792
C       -6.53822995      -2.89244237      -6.56568393       0.00489137       0.00348633       0.00491050
C       -5.73131968      -0.72013337      -5.63693465      -0.00324468       0.00291089      -0.00418561
O       -5.72895373       3.46262165      -5.64770311       0.00089989       0.00016316       0.00029646
C       -6.48893943       1.40629428      -6.52854400       0.00150146      -0.00024859      -0.00060258
H       -7.88699695       1.29543991      -8.16168489      -0.00033107       0.00839415      -0.00065574
O       -5.76587958      -3.49322185      -5.75869043      -0.00359750      -0.00471017      -0.00555957
O       -7.22345314       3.48106090      -7.37929389      -0.00485627      -0.00031223       0.00646581
O       -7.33627511      -3.48056534      -7.40061827       0.00214065       0.00311573       0.00058998
H       -5.09184537       1.20212912      -4.89564740       0.00056959      -0.01032164      -0.00167705
C       -7.28218650       0.73807521      -7.45141530      -0.00172277      -0.00114904      -0.00341705
C        6.54329212       6.46659925      -1.46226198      -0.00133245       0.00021003       0.00056690
O        4.71127154       4.88454257      -1.29680404      -0.00181950       0.00029182       0.00031033
H        4.85726664       5.01838242      -2.28281619      -0.00166376      -0.00158238       0.00042484
C        7.50888383       7.25625402       0.62023911       0.00018536      -0.00013152      -0.00134204
H        8.16664335       7.85765729      -1.34374575       0.00015535      -0.00065882      -0.00256506
C        5.62773647       5.66670285      -0.70806555      -0.00174911      -0.00019357       0.00049301
C        6.62582095       6.47452587       2.85008637      -0.00099478       0.00136762      -0.00181566
C        6.51297589       6.47093060      -2.93950982      -0.00193583       0.00004512       0.00036532
C        7.47020880       7.24917401      -0.77065850       0.00034464       0.00027054      -0.00075493
O        7.50691635       7.20720422       3.42020787       0.00097078      -0.00071434      -0.00199934
C        6.60514436       6.47228893       1.35863614      -0.00031799       0.00056856      -0.00155823
H        4.97080323       5.07543490       1.25499710      -0.00048233       0.00065433      -0.00060182
O        7.33905719       7.22322216      -3.54289640      -0.00216017       0.00426155       0.00098723
O        5.75349169       5.73883223       3.42918951      -0.00354152       0.00417134      -0.00152757
O        5.64685802       5.70811716      -3.52557133      -0.00145036      -0.00404551       0.00078840
H        8.23736317       7.86947124       1.14719302       0.00017279      -0.00090321      -0.00213524
C        5.67358544       5.68549007       0.69357279      -0.00059072       0.00035732      -0.00003776
C        6.59818915      -1.43757035       6.50973266       0.00269396       0.00249368       0.00428112
O        8.24429926      -1.31280807       8.28742613       0.00049457       0.00314769       0.00486231
H        8.09786838      -2.29544649       8.13085421       0.00140345       0.00305564      -0.00084841
C        5.77659659       0.66448518       5.61950684      -0.00089971      -0.00194159       0.00051984
H        5.15185727      -1.28369066       4.93750917       0.00341672      -0.00174439       0.00619675
C        7.43224443      -0.70335651       7.41130307       0.00123461       0.00211182       0.00418756
C        6.59487232       2.87503858       6.50651767      -0.00079365       0.00269011      -0.00125904
C        6.59495553      -2.91530195       6.50550941       0.00215255       0.00060959      -0.00453776
C        5.78429188      -0.72660358       5.62571836       0.00191165      -0.00102201       0.00375300
O        5.81656093       3.44855100       5.66853158      -0.00322007       0.00101739      -0.00060488
C        6.59526466       1.38369159       6.50837211      -0.00169073       0.00083074      -0.00027767
H        8.05481074       1.24509110       8.08430400      -0.00049160       0.00420728       0.00213804
O        5.82917603      -3.49841740       5.67831328       0.01789890      -0.00728171       0.00826768
O        7.37307405       3.45182358       7.34466656       0.00181421       0.00137029      -0.00358621
O        7.37328771      -3.51998971       7.34449928       0.00555228       0.00628625       0.00023973
H        5.13637363       1.20607557       4.92590840      -0.00102882      -0.00140379      -0.00048153
C        7.41641696       0.69914118       7.39480315      -0.00057816       0.00245843       0.00198740
C        6.55118389      -6.59747780      -1.47354395      -0.00087435       0.00035207       0.00036252
O        8.34397334      -8.22612270      -1.33300523      -0.00092791      -0.00073961       0.00078634
H        8.18395532      -8.09322024      -2.31694244      -0.00030742      -0.00087355       0.00092155
C        5.65147389      -5.76353165       0.62008305       0.00149916      -0.00125257       0.00187232
H        4.97253632      -5.15793344      -1.33545641      -0.00043774       0.00039539       0.00049906
C        7.45820884      -7.41855979      -0.73191007      -0.00039476      -0.00072782       0.00006723
C        6.54918356      -6.55725234       2.83874755       0.00251448       0.00550182       0.00315669
C        6.55244148      -6.60115143      -2.95103443       0.00038640       0.00014300       0.00033952
C        5.66164971      -5.78242102      -0.77083320      -0.00054067       0.00020077       0.00172738
O        5.72905515      -5.76094327       3.41181184       0.01782516       0.00335162       0.01112411