448
Lattice="26.06632557831566 0.0 0.0 0.0 26.06632557831566 0.0 0.0 0.0 26.06632557831566" Properties=species:S:1:pos:R:3:forces:R:3 energy=-3064.901463476156 stress="3.7615308486105324e-06 3.2399466594876306e-06 7.4120577489160265e-06 3.2399466594876306e-06 -8.247982501917136e-07 -6.717563831581809e-06 7.4120577489160265e-06 -6.717563831581809e-06 5.051722365202217e-07" pbc="T T T"
C        6.57534783      14.39855966       6.40348227       0.00209078      -0.00117366      -0.00239511
O        8.32093290      14.25995720       4.72425857       0.00258435      -0.00261373      -0.00190234
H        8.16946711      15.24393530       4.86910486       0.00127300      -0.00215469      -0.00278618
C        5.70795956      12.30278961       7.26705766       0.00157716      -0.00050160      -0.00160760
H        5.03872297      14.25721403       7.88782266       0.00222200      -0.00013346      -0.00273212
C        7.45987026      13.65791033       5.55740332       0.00213824      -0.00233698      -0.00186883
C        6.58707459      10.08622940       6.44771746       0.00068577      -0.00008152       0.00026707
C        6.57416444      15.87645227       6.39660923       0.00416966      -0.00056443      -0.00295514
C        5.71197791      13.69402129       7.24483703       0.00183098      -0.00083650      -0.00218763
O        5.77647933       9.51087861       7.25500306       0.00086154      -0.00111982      -0.00090982
C        6.57843914      11.57743341       6.43415928       0.00084282      -0.00157120      -0.00029648
H        8.11948855      11.70501899       4.93682552       0.00094782      -0.00293510      -0.00053433
O        5.75909910      16.46783722       7.16837153       0.00425193      -0.00068063      -0.00261315
O        7.40716001       9.51177766       5.65058592       0.00029592      -0.00187896       0.00185290
O        7.40547677      16.47281126       5.60348009       0.00504507       0.00069151      -0.00269897
H        5.03125458      11.76633001       7.92938840       0.00149516       0.00062732      -0.00176401
C        7.44390029      12.25581891       5.58589040       0.00107575      -0.00244234      -0.00062415
C      -14.33420314       6.49713302       6.48567433      -0.00051433       0.00247225      -0.00283593
O      -14.18866973       8.37724930       4.95930611       0.00182421       0.00316110      -0.00330350
H      -15.17272571       8.19865231       5.06783102       0.00123876       0.00404780      -0.00424076
C      -12.24191715       5.55268851       7.27357399      -0.00191992       0.00165238      -0.00116979
H      -14.19873861       4.84102846       7.83654230      -0.00300639       0.00291929      -0.00238220
C      -13.59005850       7.45102972       5.72184235       0.00112560       0.00247723      -0.00289760
C      -10.02160847       6.49640138       6.53712212      -0.00352175       0.00028232       0.00072261
C      -15.81201135       6.49875981       6.47324353      -0.00108959       0.00358945      -0.00347947
C      -13.63321014       5.56418691       7.25257284      -0.00158174       0.00223203      -0.00202608
O       -9.44853007       5.61438789       7.26669132      -0.00216596      -0.00049643      -0.00194773
C      -11.51367306       6.49209346       6.52239792      -0.00138056       0.00057271      -0.00022872
H      -11.63402720       8.16417287       5.17315944       0.00111839       0.00064034      -0.00144997
O      -16.40733235       5.65979318       7.21570083      -0.00124859       0.00406219      -0.00256899
O       -9.44838736       7.38404139       5.81647450      -0.00090233       0.00066269       0.00415195
O      -16.40449940       7.35637106       5.70508933       0.00032565       0.00360994      -0.00457193
H      -11.70720750       4.81768652       7.87223085      -0.00344607       0.00165678      -0.00108832
C      -12.18823948       7.43335066       5.75602952       0.00094437       0.00095532      -0.00137160
C       -6.37307713      11.64369552       6.50892596       0.00192874       0.00150068       0.00342166
O       -4.71461417      11.80204599       8.27232490       0.00100799       0.00357319       0.00295074
H       -4.85374847      10.81637848       8.12721410       0.00354857       0.00381290       0.00361489
C       -7.23234976      13.72826528       5.61177201       0.00207813       0.00128286       0.00102838
H       -7.83682282      11.76648765       4.95078422       0.00254810      -0.00284800       0.00054710
C       -5.54156228      12.39433792       7.39861060       0.00047061       0.00253315       0.00214406
C       -6.43683093      15.95414945       6.48646592      -0.00282292      -0.00585635       0.00152959
C       -6.36501672      10.16624096       6.52326219       0.00104956       0.00195759       0.00355257
C       -7.20514170      12.33750762       5.62796491       0.00238719      -0.00004727       0.00168777
O       -7.21275795      16.52113251       5.64016741      -0.00882942       0.00161494       0.00190423
C       -6.41634003      14.46344608       6.48951980      -0.00026985      -0.00018410       0.00101682
H       -4.94271449      14.35505596       8.05517489      -0.00166605       0.00256172       0.00011033
O       -7.13065502       9.56717128       5.70822839      -0.00056650       0.00164410       0.00622028
O       -5.67526517      16.53541002       7.33484452      -0.00746534       0.00764073      -0.00691197
O       -5.57820147       9.57827673       7.36657675       0.00208174       0.00055877       0.00091586
H       -7.88559778      14.25739175       4.92074517      -0.00013249      -0.00332369      -0.00215864
C       -5.57813330      13.79602648       7.37334483       0.00038881       0.00089147       0.00149256
C      -11.55693083      -6.53141636       6.44484209      -0.00282973      -0.01673550      -0.01789954
O      -11.67949644      -8.29741999       4.78142157       0.00192665       0.00408835       0.00569103
H      -10.69751318      -8.13334925       4.92468385      -0.00170876      -0.01076508      -0.00926206
C      -13.66388331      -5.65336361       7.26902231       0.01229931       0.00244116       0.00145182
H      -11.71624537      -4.97501341       7.90509831      -0.00280616       0.00183827       0.00122658
C      -12.28806222      -7.43033396       5.60374757      -0.00736225      -0.00251656      -0.00248066
C      -15.86992439      -6.54870431       6.43935674       0.00030700       0.00324438       0.00584401
C      -10.07964112      -6.52608407       6.44849673       0.00541757      -0.00231547      -0.00150023
C      -12.27239955      -5.65728587       7.26558203       0.01110114      -0.00710185      -0.00787081
O      -16.45099262      -5.69433537       7.19405208       0.00733655       0.00588090       0.00729383
C      -14.37850637      -6.54049962       6.44414606      -0.00203798       0.00686678       0.00350304
H      -14.23410836      -8.11058607       4.98084760       0.00211729      -0.00476210      -0.00230765
O       -9.48770390      -5.72031804       7.22875730      -0.01796536      -0.00492356      -0.00137181
O      -16.43758880      -7.40889910       5.68039185      -0.00746832       0.00745399       0.00766475
O       -9.48017286      -7.35119910       5.64848809       0.00565280      -0.01118965      -0.00921642
H      -14.20825193      -4.96360227       7.91129534      -0.00295146      -0.00434342      -0.00446883
C      -13.69015885      -7.42132900       5.62117839      -0.00975320       0.00271575       0.00315442
C        6.48241390      -6.59664758      14.36009690      -0.00026322       0.00002420       0.00080413
O        4.76498883      -8.30210781      14.20520114      -0.00091595      -0.00069942       0.00058165
H        4.90182770      -8.15279992      15.19006754      -0.00051844      -0.00052271       0.00024567
C        7.38292215      -5.74259203      12.27556245      -0.00100977       0.00027053       0.00104365
H        8.00537563      -5.09658271      14.23627042      -0.00041135       0.00069321       0.00060183
C        5.62313777      -7.46073608      13.61036084      -0.00065649      -0.00028180       0.00133551
C        6.55629483      -6.58313079      10.04934146      -0.00082499       0.00005073      -0.00025392
C        6.46125149      -6.59173755      15.83745328      -0.00006273      -0.00053130       0.00037455
C        7.35052678      -5.75196701      13.66603509      -0.00049213       0.00046679       0.00116898
O        7.36949208      -5.76717986       9.49134137      -0.00206136       0.00175947       0.00065663
C        6.53496096      -6.58986861      11.54113537      -0.00100005      -0.00046848       0.00071711
H        5.00799257      -8.10240916      11.64836701      -0.00078828      -0.00004963      -0.00000040
O        7.24805082      -5.79261656      16.43093276       0.00025363      -0.00102360       0.00074914
O        5.75851161      -7.39238627       9.46333490       0.00034795      -0.00080042      -0.00030291
O        5.64339485      -7.40086452      16.43027843      -0.00030045      -0.00057467       0.00001409
H        8.06440923      -5.07878501      11.74720864      -0.00145579       0.00084611       0.00050917
C        5.66482730      -7.44232687      12.20865038      -0.00104770      -0.00052340       0.00121531
C        6.49665087      11.58069084      -6.60298690       0.00014811      -0.00060061      -0.00037771
O        4.84711275      11.72215484      -8.37734759       0.00059337      -0.00032910      -0.00071692
H        4.98545097      10.73821942      -8.22241726       0.00089324      -0.00034282      -0.00116722
C        7.33166870      13.67582696      -5.70674462      -0.00046977      -0.00076552       0.00058652
H        7.94916780      11.72115020      -5.03630410      -0.00060035      -0.00088918       0.00032433
C        5.66604106      12.32285492      -7.50163114       0.00030034      -0.00044852      -0.00035859
C        6.52040664      15.89407275      -6.58871696       0.00023131      -0.00054423       0.00038501
C        6.49306694      10.10312645      -6.60520210       0.00035815      -0.00060180      -0.00079942
C        7.31717435      12.28462180      -5.71952413      -0.00034883      -0.00075984       0.00020797
O        7.28556937      16.46848349      -5.73884980       0.00028583      -0.00074268       0.00043319
C        6.51578463      14.40232124      -6.59187488      -0.00007627      -0.00058952       0.00035434
H        5.05902950      14.27724705      -8.17126652       0.00025533      -0.00031032       0.00004770
O        7.26060067       9.51003658      -5.78504721      -0.00016433      -0.00062654      -0.00034926
O        5.75550296      16.46842560      -7.43882111       0.00045588      -0.00036620       0.00026926
O        5.70757906       9.50702691      -7.44316013       0.00107803      -0.00059598      -0.00148959
H        7.97504466      14.21192227      -5.01177004      -0.00082052      -0.00092337       0.00103714
C        5.69245766      13.72506444      -7.48198118       0.00014026      -0.00044732       0.00003926
C        6.62535448       6.52550443      11.56424936      -0.00410328       0.00279322      -0.00015515
O        4.85040828       8.17663490      11.68683339      -0.00396672       0.00379434       0.00296433
H        5.00790382       8.02842797      10.70460969      -0.00595238       0.00391200       0.00243186
C        7.49877641       5.69188397      13.66943162      -0.00037369       0.00267926      -0.00164485
H        8.18837102       5.06990224      11.72273654      -0.00198143       0.00521142      -0.00400263
C        5.72152795       7.35933346      12.29619144      -0.00354157       0.00301470       0.00193183
C        6.59050848       6.50372127      15.87670132       0.00017838      -0.00162062      -0.00114491
C        6.63143594       6.52321281      10.08704661      -0.00647314       0.00256154      -0.00197329
C        7.50082632       5.70447562      12.27813522      -0.00191620       0.00361691      -0.00168467
O        7.43010923       5.73385688      16.45862676       0.00001118      -0.00224207      -0.00187492
C        6.60830067       6.51171779      14.38539767      -0.00018178       0.00070760      -0.00043950
H        5.03528795       7.97349125      14.24211008       0.00003525       0.00121356       0.00276579
O        7.46339696       5.76700559       9.49899312      -0.00604869       0.00143755      -0.00107413
O        5.73547970       7.27017656      16.44235942       0.00026711      -0.00270922       0.00020564
O        5.78368342       7.29581384       9.48431538      -0.00845650       0.00344754       0.00106770
H        8.18535842       5.04671272      14.21431624       0.00101699       0.00296237      -0.00413324
C        5.72839039       7.33710218      13.69833493      -0.00099543       0.00156773       0.00173255
C       -6.53429426      11.62071325      -6.49686441      -0.00132575       0.00089433       0.00126975
O       -8.21234966      11.76786516      -4.75045475      -0.00204617       0.00310653       0.00166555
H       -8.06112923      10.78335294      -4.89039145      -0.00398214       0.00270600       0.00141440
C       -5.69134002      13.71162945      -7.39408985       0.00008654      -0.00019119       0.00030136
H       -5.05062060      11.75462359      -8.03509550      -0.00079727      -0.00164063       0.00186176
C       -7.38807752      12.36572920      -5.62300089      -0.00148242       0.00222696       0.00112754
C       -6.53478384      15.93262390      -6.55232900       0.00132317      -0.00040154      -0.00134001
C       -6.52985467      10.14380711      -6.48076843      -0.00245228      -0.00032350       0.00250719
C       -5.69949832      12.32069661      -7.37009871      -0.00055781      -0.00014856       0.00103017
O       -5.70808381      16.50265545      -7.34541100       0.00067006      -0.00137898      -0.00151045
C       -6.53430454      14.44110908      -6.53722325       0.00121687       0.00065877      -0.00004139
H       -8.03294125      14.32203835      -4.99663927      -0.00006823       0.00256837      -0.00113880
O       -5.74980337       9.54844112      -7.28658237       0.00061044       0.00015648       0.00406564
O       -7.36395326      16.51032705      -5.76726601       0.00087648       0.00176172      -0.00122479
O       -7.32162345       9.55037336      -5.64633427      -0.00526388       0.00153802       0.00119467
H       -5.03267331      14.24526204      -8.07650556       0.00006986      -0.00172020      -0.00013841
C       -7.37648691      13.76758092      -5.66207470      -0.00006546       0.00204639      -0.00026664
C      -14.43359899       6.48235302      -6.56038648       0.00007128       0.00012351       0.00036525
O      -14.26728740       4.70266996      -8.20254692      -0.00002429      -0.00031270       0.00054079
H      -15.25335012       4.84457688      -8.06628309      -0.00019296      -0.00000753       0.00055278
C      -12.35134713       7.39680095      -5.71321882       0.00051711       0.00038428      -0.00036649
H      -14.31562925       8.05269024      -5.11008457      -0.00017052       0.00043293       0.00005923
C      -13.67944881       5.58939770      -7.38613838      -0.00004334      -0.00019241       0.00056747
C      -10.12162326       6.52911747      -6.51046421       0.00268056      -0.00012435      -0.00275652
C      -15.91066815       6.46849767      -6.57344111      -0.00040283       0.00019680       0.00017200
C      -13.74223523       7.37320417      -5.73715016       0.00038755       0.00041368       0.00020954
O       -9.55472276       7.36216063      -5.72195108      -0.00092649       0.00101993      -0.00340488
C      -11.61308170       6.51873353      -6.52604629       0.00188578       0.00039192      -0.00071934
H      -11.71631600       4.94300248      -7.98864490      -0.00024272      -0.00044999       0.00068316
O      -16.51581291       7.29379537      -5.82139695       0.00006654       0.00061103       0.00020451
O       -9.54049729       5.69954590      -7.29291195       0.00544358       0.00132001      -0.00019900
O      -16.49445309       5.61504217      -7.35168321       0.00003326      -0.00017496      -0.00004779
H      -11.82459359       8.09468728      -5.06531979      -0.00035476       0.00067935      -0.00055721
C      -12.27784715       5.62496747      -7.35555829       0.00035035       0.00030709       0.00083036
C       -6.48697881      -6.50652573     -14.47215933       0.00353238      -0.00436618       0.00093229
O       -4.69235259      -8.13288788     -14.32202495       0.00390593      -0.00178398       0.00066385
H       -4.84155328      -7.99303207     -15.30704049       0.00192278      -0.00106130       0.00085714
C       -7.39752011      -5.67627118     -12.38090441      -0.00473768       0.00271452      -0.00695602
H       -8.06621105      -5.06592569     -14.33862570       0.00475522      -0.00724446      -0.00407489
C       -5.58288232      -7.32683694     -13.72600202       0.00409785      -0.00389366      -0.00113287
C       -6.52049434      -6.48709773     -10.16032712      -0.01081708       0.01402472       0.01709291
C       -6.48019675      -6.51690893     -15.95017130       0.00025773       0.00046100      -0.00843141
C       -7.37971667      -5.69207582     -13.77229744      -0.00003696      -0.00207363      -0.00198282
O       -7.36914256      -5.72038930      -9.58433051       0.00781231       0.00452363      -0.02880673
C       -6.51012677      -6.48629898     -11.65089134      -0.00084939      -0.00198334      -0.00570753
H       -4.92028642      -7.93243603     -11.76945558       0.00260274      -0.00005389       0.00177290
O       -7.31563722      -5.77301381     -16.54913780       0.00857230      -0.00216615      -0.00061428
O       -5.67498516      -7.25763822      -9.58674324       0.00304161      -0.00324343       0.00080472
O       -5.62210701      -7.28557539     -16.54101463       0.00990316      -0.01251749       0.00681224
H       -8.09877132      -5.03784006     -11.84698764      -0.00044684      -0.00009954      -0.00470085
C       -5.61097686      -7.30292489     -12.32416809      -0.00033258       0.00024760       0.00136996
C       -6.49774903       6.55173931     -11.59210829      -0.00369529      -0.00236978       0.00172925
O       -8.29150693       4.92518016     -11.75745038       0.00169420      -0.00021368      -0.00024058
H       -8.14264435       5.05603561     -10.77136312      -0.00148096      -0.00072420      -0.00009679
C       -5.57856942       7.39359430     -13.67454521      -0.00141479      -0.00035667       0.00010787
H       -4.92112790       7.99539385     -11.71029413      -0.00004220       0.00095397       0.00145433
C       -7.39640375       5.73204308     -12.34567889      -0.00058838      -0.00055841      -0.00121892
C       -6.43785097       6.58252855     -15.90335396       0.00186321      -0.00226879       0.00079159
C       -6.51002770       6.53522301     -10.11515722      -0.00214835      -0.00394487       0.00460162
C       -5.60314021       7.37104725     -12.28362604      -0.00247790      -0.00124916       0.00223412
O       -5.62883523       7.39267449     -16.47429063       0.00094598      -0.00211116      -0.00005685
C       -6.45789931       6.58156566     -14.41213974      -0.00111019      -0.00229828       0.00034185
H       -8.04104178       5.12685509     -14.30827215       0.00092077       0.00088057       0.00074852
O       -5.68581932       7.28821295      -9.50998100      -0.00052875      -0.00322413       0.00068805
O       -7.23714983       5.76578895     -16.47932661       0.00334803      -0.00363894       0.00093148
O       -7.35998888       5.75298876      -9.53079215       0.00103139      -0.00303409       0.00166596
H       -4.87780560       8.03776634     -14.20195902      -0.00045657       0.00203632       0.00018074
C       -7.35754798       5.75870147     -13.74713336      -0.00049006      -0.00064192      -0.00015037
C      -11.63415440      -6.50161824      -6.53169516      -0.00851372      -0.00335043       0.00277231
O      -11.79016045      -8.23158264      -4.83633118       0.00013884      -0.00132338       0.00007409
H      -10.80491914      -8.09062686      -4.98101377      -0.00238462      -0.00484011       0.00458180
C      -13.72148219      -5.63469772      -7.41655475      -0.00007704      -0.00053959       0.00096158
H      -11.76070290      -4.97639585      -8.02869082       0.00137041       0.00280024      -0.00141463
C      -12.38303511      -7.37589516      -5.68152709       0.00167806       0.00137459      -0.00221312
C      -15.94633111      -6.50608988      -6.60295593       0.00150899      -0.00043818       0.00099760
C      -10.15857331      -6.50666109      -6.51575963       0.02122702       0.01753011      -0.01307171
C      -12.33049882      -5.64259045      -7.38434605      -0.00319449       0.00393671      -0.00320973
O      -16.52339987      -5.71149543      -7.42169369       0.00014845      -0.00052904       0.00113273
C      -14.45441281      -6.49558813      -6.58094698       0.00132545      -0.00113622       0.00144135
H      -14.34188704      -8.02225222      -5.06773084       0.00071198      -0.00041532       0.00022357
O       -9.55676077      -5.68752180      -7.27852584      -0.02935540       0.00322583       0.00958910
O      -16.51366741      -7.31778258      -5.79177979       0.00062264       0.00034756       0.00033155
O       -9.56872165      -7.34443132      -5.72591629       0.00072291      -0.00967076       0.00592455
H      -14.25292004      -4.96317302      -8.08816293       0.00235305      -0.00225485       0.00298613
C      -13.78449406      -7.35472208      -5.71960496       0.00069181      -0.00066114       0.00046013
C        6.54390328      -1.45292533      -6.54126868      -0.00334948      -0.00050458       0.00358273
O        5.04033499      -1.31704960      -4.64158486      -0.00232127       0.00265258       0.00427237
H        5.16197456      -2.30020913      -4.81413751      -0.00441632       0.00244463       0.00479483
C        7.32140221       0.64463439      -7.48230010      -0.00076718      -0.00222905       0.00192016
H        7.87749824      -1.30749440      -8.21090335      -0.00273616      -0.00353563       0.00400775
C        5.78685604      -0.71358692      -5.57809449      -0.00207815       0.00103073       0.00339155
C        6.57616885       2.85973117      -6.53854879      -0.00055123      -0.00061542      -0.00150890
C        6.52761513      -2.93012931      -6.55182909      -0.00508052      -0.00043150       0.00396481
C        7.30060327      -0.74649173      -7.47857276      -0.00227311      -0.00215865       0.00328847
O        7.32551037       3.43265206      -7.40308673      -0.00007253      -0.00157788      -0.00175679
C        6.57205767       1.36816740      -6.53768746      -0.00051921      -0.00061989       0.00084933
H        5.22771824       1.23855006      -4.86207319       0.00070699       0.00240897       0.00205066
O        7.22168306      -3.52155609      -7.43413512      -0.00555479      -0.00150889       0.00418732
O        5.82920358       3.43522102      -5.67315929      -0.00138296       0.00027516      -0.00285348
O        5.80341944      -3.52942361      -5.65968238      -0.00594664       0.00077814       0.00384354
H        7.91642322       1.18319799      -8.21739205       0.00008667      -0.00362224       0.00160609
C        5.81159339       0.68854864      -5.59536322      -0.00043954       0.00100223       0.00215528
C       -6.51806801      -1.41198079      -6.54492950       0.01333709      -0.00759220       0.01051096
O       -8.09476601      -1.25633822      -8.38497606      -0.00744912       0.01709637      -0.00750944
H       -7.98147254      -2.24135630      -8.21301335      -0.00595939       0.00456652      -0.00699576
C       -5.71498811       0.67790827      -5.60916649       0.00107044       0.00872643      -0.00430080
H       -5.12277734      -1.28055857      -4.92638808      -0.00198468      -0.00753915      -0.00206504
C       -7.30985380      -0.66364842      -7.47407903       0.00166763       0.00040213       0.00430425
C       -6.48762889       2.90206999      -6.51315185       0.01746550      -0.00048536       0.00870049
C       -6.52362230      -2.88947647      -6.55590613      -0.06113036      -0.00314596      -0.06469063
C       -5.72918831      -0.71328790      -5.62945847       0.00347632       0.00313535       0.00460764
O       -5.74126647       3.46752960      -5.64050379      -0.00124904       0.01188831       0.00296073
C       -6.49360756       1.41016948      -6.52324168      -0.00109548       0.00070777      -0.00256035
H       -7.88515502       1.29310118      -8.16152808       0.00069049       0.00702502       0.00250835
O       -5.75638904      -3.50326134      -5.75549020       0.01047953       0.05169765       0.01272983
O       -7.22687322       3.48518074      -7.37972064      -0.00270631      -0.01042298       0.00608716
O       -7.32546379      -3.46686938      -7.39652540       0.01014257      -0.07868969       0.01638793
H       -5.09969424       1.21069492      -4.88677377       0.00182264      -0.00340894       0.00188443
C       -7.28093459       0.73839340      -7.44855869       0.00042386       0.00054261      -0.00272557
C        6.54280786       6.46667775      -1.46832107       0.00013978      -0.00031155       0.00008063
O        4.71753823       4.87678022      -1.30224331      -0.00080161       0.00146148       0.00020362
H        4.86299756       5.01069407      -2.28819663      -0.00014831       0.00014684      -0.00005815
C        7.50783926       7.25703728       0.61444161      -0.00016721       0.00017981       0.00025663
H        8.16198624       7.86220267      -1.34977564       0.00067728      -0.00013779      -0.00072255
C        5.63065943       5.66315130      -0.71367603      -0.00051656       0.00061077       0.00066252
C        6.62696621       6.47407487       2.84545031       0.00031036       0.00029602      -0.00131532
C        6.51337574       6.47041674      -2.94585520       0.00059824      -0.00082330      -0.00064523
C        7.46782721       7.25122664      -0.77654885       0.00026729      -0.00002536      -0.00006713
O        7.51143926       7.20264432       3.41590662      -0.00009389      -0.00060946      -0.00019338
C        6.60614199       6.47131227       1.35352780      -0.00030072       0.00057266      -0.00014505
H        4.97592824       5.06940415       1.24929979      -0.00048439       0.00208490      -0.00019400
O        7.33623875       7.22666555      -3.54920701       0.00023451      -0.00021634      -0.00058344
O        5.75086794       5.74284565       3.42493399       0.00102828       0.00082917      -0.00002982
O        5.65156167       5.70263577      -3.53177466       0.00121401      -0.00197514      -0.00028456
H        8.23600554       7.87103705       1.14083509       0.00025046       0.00047727      -0.00057290
C        5.67674372       5.68199214       0.68811603      -0.00043289       0.00122248       0.00018098
C        6.60411228      -1.44202169       6.50646467      -0.00036062      -0.00089395       0.00069188
O        8.24914213      -1.30543075       8.28573018      -0.00021554      -0.00054609       0.00036923
H        8.11609954      -2.28861459       8.12429776       0.00142374      -0.00018542       0.00048468
C        5.76750391       0.65407541       5.61611323      -0.00073727      -0.00129950      -0.00012717
H        5.15266888      -1.29833902       4.93832032      -0.00158607      -0.00177889       0.00136656
C        7.43359259      -0.70205607       7.40850201      -0.00011538      -0.00116754       0.00008708
C        6.58419101       2.87070282       6.49379696       0.00014498       0.00010157      -0.00049095
C        6.60835383      -2.91818897       6.50378885      -0.00196210      -0.00052325       0.00094141
C        5.78342566      -0.73689674       5.62430197      -0.00081741      -0.00158178       0.00078803
O        5.78890805       3.44004013       5.66803813      -0.00023195      -0.00165468      -0.00189345
C        6.58494332       1.37839845       6.50114284       0.00032105      -0.00139485       0.00003794
H        8.04286757       1.25194995       8.07884887       0.00103903      -0.00090646      -0.00086381
O        5.82940333      -3.50776966       5.69072550      -0.00226830      -0.00098734       0.00173618
O        7.37895574       3.44557546       7.31393172       0.00043141      -0.00098288       0.00070013
O        7.40267316      -3.51940449       7.32875050      -0.00241504       0.00130645       0.00117452
H        5.12254639       1.19121244       4.92348719      -0.00109294      -0.00111102      -0.00051316
C        7.40868170       0.69994148       7.39018541       0.00067705      -0.00128896      -0.00006093
C        6.55162864      -6.59445631      -1.47841071      -0.00032165       0.00102125       0.00071004
O        8.34938781      -8.21876856      -1.34020538      -0.00158704      -0.00004564       0.00111566
H        8.18695676      -8.08797824      -2.32364670      -0.00106610      -0.00042248       0.00086835
C        5.65096704      -5.76671760       0.61777943      -0.00008275       0.00053593       0.00107031
H        4.96573705      -5.16288499      -1.33589971       0.00121252       0.00139535       0.00019812
C        7.46200596      -7.41340863      -0.73768455      -0.00116626       0.00037039       0.00122981
C        6.55219709      -6.55927241       2.83489481      -0.00051152       0.00052592       0.00003306
C        6.55544906      -6.59406233      -2.95499007       0.00022048       0.00048893       0.00026277
C        5.65916449      -5.78465724      -0.77342966       0.00027021       0.00112519       0.00109397
O        5.73827662      -5.75639875       3.41227544      -0.00066737       0.00090878      -0.00025906