448
Lattice="26.06595208125634 0.0 0.0 0.0 26.06595208125634 0.0 0.0 0.0 26.06595208125634" Properties=species:S:1:pos:R:3:forces:R:3 energy=-3064.9010553411267 stress="1.0952012521607177e-05 2.1501361285202677e-06 2.9111151755928083e-06 2.1501361285202677e-06 3.2630735613311656e-06 4.180013593599729e-06 2.9111151755928083e-06 4.180013593599729e-06 -1.0022839264925074e-08" pbc="T T T"
C        6.58877012      14.40687021       6.39025920       0.00130450       0.00001237      -0.00100482
O        8.33563808      14.26560731       4.71242317       0.00069865      -0.00067690      -0.00026469
H        8.18546848      15.24970155       4.85648457       0.00144947      -0.00068794      -0.00103103
C        5.71509283      12.31402575       7.25224555      -0.00053657       0.00038166      -0.00121190
H        5.04922780      14.26933902       7.87229648       0.00110217       0.00105502      -0.00138075
C        7.47354529      13.66493870       5.54542887       0.00087823      -0.00044623      -0.00064989
C        6.58735666      10.09560974       6.43335692       0.00056052      -0.00125048       0.00076256
C        6.58957563      15.88421774       6.38444270       0.00179415       0.00038790      -0.00050981
C        5.72228479      13.70480445       7.23044884       0.00080202       0.00060768      -0.00138555
O        5.75899474       9.52408073       7.22180108       0.00209436      -0.00186787       0.00314771
C        6.58512464      11.58737998       6.42046449      -0.00008962       0.00081472      -0.00043780
H        8.13188531      11.70994762       4.92870939       0.00018411      -0.00034468       0.00010023
O        5.77424074      16.47525954       7.15635782       0.00226261       0.00049856      -0.00000225
O        7.42285406       9.52281014       5.65069272       0.00044630      -0.00004061      -0.00088832
O        7.42202987      16.48018069       5.59271338       0.00161561       0.00032988      -0.00061299
H        5.03655751      11.77817467       7.91300672      -0.00151492       0.00097855      -0.00165236
C        7.45538736      12.26294280       5.57501726       0.00048166       0.00010538      -0.00051615
C      -14.33894919       6.50153652       6.47405926      -0.00065213       0.00141558      -0.00061165
O      -14.18992371       8.38356534       4.94910037       0.00098211       0.00104106      -0.00134282
H      -15.17410481       8.20871789       5.05753542       0.00061769      -0.00002119      -0.00329917
C      -12.24776210       5.55901528       7.26742690      -0.00034777       0.00154850      -0.00167856
H      -14.20553904       4.84689315       7.82669181       0.00054176       0.00127355      -0.00137488
C      -13.59307512       7.45504981       5.71101085       0.00057434       0.00138058      -0.00133581
C      -10.02601829       6.49992544       6.53197656       0.00040043       0.00107064      -0.00060534
C      -15.81556221       6.50436042       6.46060309       0.00132809       0.00359650       0.00036619
C      -13.63898722       5.56973448       7.24319290      -0.00073141       0.00158997      -0.00142357
O       -9.44976609       5.62642510       7.26824306      -0.00016026       0.00167724       0.00058543
C      -11.51741069       6.49634468       6.51545261       0.00009992       0.00132287      -0.00151076
H      -11.63669714       8.16610340       5.16254538       0.00073247       0.00032800      -0.00162684
O      -16.41341548       5.66251903       7.20157828      -0.00041339       0.00946899       0.00640435
O       -9.45068997       7.38166462       5.80199781       0.00044073       0.00053141      -0.00113001
O      -16.40932967       7.36370906       5.69708852      -0.00005109      -0.00130615      -0.00413307
H      -11.71479801       4.82543941       7.86932583       0.00062563       0.00128288      -0.00146747
C      -12.19121851       7.43614198       5.74633546       0.00008683       0.00120513      -0.00173166
C       -6.36718306      11.64324223       6.51918133      -0.00019086       0.00003525      -0.00011711
O       -4.71424813      11.80994330       8.28770434      -0.00098304       0.00096320       0.00090511
H       -4.84873731      10.82410265       8.14511301      -0.00068748       0.00115531       0.00092116
C       -7.22471962      13.72439206       5.61115840      -0.00068573      -0.00128835      -0.00127623
H       -7.82378394      11.76002847       4.95373285       0.00140282      -0.00071426      -0.00010950
C       -5.54034322      12.39839480       7.40990721      -0.00087534      -0.00001626       0.00008194
C       -6.43701370      15.95510641       6.48143851      -0.00239478       0.00144880      -0.00016334
C       -6.35813649      10.16683721       6.53772470       0.00042856       0.00035935       0.00073681
C       -7.19577421      12.33360171       5.63228454       0.00021331      -0.00066197      -0.00055401
O       -7.20873160      16.52140667       5.63012654      -0.00556947       0.00028701       0.00163904
C       -6.41463007      14.46398535       6.49010481      -0.00168636      -0.00019501      -0.00054081
H       -4.94892778      14.36240849       8.06370471      -0.00123165       0.00123655      -0.00008820
O       -7.12458887       9.56510295       5.72208509       0.00061739      -0.00008094       0.00103909
O       -5.67997045      16.53914306       7.33153191       0.00010120       0.00101859      -0.00189040
O       -5.57289015       9.57795420       7.38070471       0.00021954      -0.00001681       0.00062626
H       -7.87544314      14.24967664       4.91483249       0.00011206      -0.00122913      -0.00169663
C       -5.57986618      13.79995866       7.38042313      -0.00120374       0.00035785      -0.00014683
C      -11.55460363      -6.52899456       6.44530639       0.00258130      -0.00192031      -0.00215634
O      -11.68125211      -8.30000314       4.79149317      -0.00314652      -0.00615508      -0.00447114
H      -10.69891279      -8.13633669       4.93055259      -0.00176077      -0.00544064      -0.00430883
C      -13.65796566      -5.64568513       7.27466389       0.00404277      -0.00052360      -0.00184950
H      -11.70988266      -4.96778248       7.90393448       0.00495900      -0.00522737      -0.00600932
C      -12.28911891      -7.42932196       5.61054432      -0.00149193      -0.00358181      -0.00315474
C      -15.86807049      -6.53711501       6.45245162       0.00073881       0.00360878       0.00080845
C      -10.07688933      -6.52545227       6.44634949      -0.00078218      -0.00554517      -0.00390917
C      -12.26653502      -5.65182328       7.26659694       0.00351396      -0.00266392      -0.00348744
O      -16.44873218      -5.68129010       7.20608811       0.00317612       0.00551474       0.00056594
C      -14.37650230      -6.53309393       6.45402663       0.00126190       0.00184717       0.00001612
H      -14.23669798      -8.10930835       4.99508594      -0.00453720      -0.00155798      -0.00015260
O       -9.49006611      -5.71652174       7.22784965      -0.00035768      -0.00753690      -0.00277006
O      -16.43661071      -7.39743672       5.69446410      -0.00109479       0.00324599       0.00240778
O       -9.47370915      -7.34979351       5.64868217       0.00056796      -0.00353648      -0.00376101
H      -14.20113373      -4.95456339       7.91648543       0.00637738      -0.00001107      -0.00121510
C      -13.69136060      -7.41797545       5.63201965      -0.00179591      -0.00128611      -0.00120616
C        6.48226931      -6.58965631      14.36573014      -0.00070808       0.00047964       0.00741917
O        4.76614171      -8.29674341      14.21655523      -0.00192051      -0.00249463      -0.00114384
H        4.90751600      -8.14884001      15.20106445       0.00062854       0.00076976       0.00071454
C        7.37990109      -5.74055764      12.27806793      -0.00093197      -0.00032825       0.00130500
H        8.00244524      -5.08591084      14.23576727      -0.00471792      -0.00363558       0.00270021
C        5.62246443      -7.45541708      13.61885722      -0.00383342      -0.00395678      -0.00175954
C        6.55725627      -6.59047332      10.05431296      -0.00163861       0.00272200      -0.00015949
C        6.46419608      -6.58487666      15.84350802      -0.01443767      -0.01915615      -0.01793101
C        7.34817226      -5.74476509      13.66866243      -0.00509728      -0.00461170       0.00387800
O        7.38162124      -5.78541931       9.49677334      -0.00733438       0.00842099       0.00064404
C        6.53296020      -6.59139403      11.54634579      -0.00043288       0.00105748      -0.00039041
H        5.00286802      -8.10021150      11.65916694      -0.00036467      -0.00150743      -0.00143678
O        7.24715645      -5.78025712      16.43414300       0.00875993      -0.00766907       0.02029460
O        5.75224649      -7.39199826       9.46744565       0.00244038      -0.00216308      -0.00019475
O        5.65384656      -7.39966643      16.43936041      -0.00095540       0.00498191      -0.00169954
H        8.06040948      -5.07780666      11.74716432       0.00102155       0.00097351       0.00149420
C        5.66159506      -7.43997106      12.21695677      -0.00075731      -0.00091587      -0.00135583
C        6.49875846      11.57622195      -6.60829654      -0.00464600       0.00845071      -0.00192615
O        4.85191019      11.71820658      -8.38496692       0.00225927       0.00051204      -0.00132814
H        4.99098311      10.73407495      -8.23162109      -0.00045750       0.00159974      -0.00025727
C        7.32822883      13.67002370      -5.70468598       0.00039745       0.00135553       0.00047173
H        7.94648608      11.71457197      -5.03728602       0.00132566      -0.00078158       0.00151798
C        5.66849816      12.31863523      -7.50693125       0.00063942       0.00150181       0.00013067
C        6.51802500      15.88876759      -6.58533607      -0.00157361      -0.00037422       0.00015580
C        6.49383351      10.09943803      -6.60975838      -0.00310960      -0.00727067       0.00363723
C        7.31583704      12.27900576      -5.72085699       0.00047979       0.00285183       0.00128539
O        7.28325291      16.46182480      -5.73469782      -0.00188586       0.00208702       0.00200511
C        6.51379200      14.39712504      -6.59067206      -0.00076713      -0.00050477      -0.00136227
H        5.05956001      14.27378010      -8.17254223       0.00085666      -0.00026175      -0.00051937
O        7.25864008       9.50686110      -5.78706374      -0.00405518       0.00434064       0.00544455
O        5.75309049      16.46446007      -7.43467097      -0.00054643      -0.00038199       0.00116809
O        5.70933825       9.50293363      -7.44818953      -0.00508678       0.00531810       0.00046587
H        7.96884490      14.20517572      -5.00639660      -0.00142046      -0.00017586      -0.00114020
C        5.69277250      13.72076743      -7.48372547       0.00047826       0.00156180      -0.00058561
C        6.63290181       6.51923296      11.56153335       0.00893165      -0.00564938      -0.00928464
O        8.40397795       4.86596182      11.69756691       0.00341482       0.00356234       0.00464011
H        8.26091872       5.02378209      10.71422742       0.00698520      -0.00736776       0.01345140
C        5.72193829       7.33032003      13.65930913      -0.00247405       0.00538828      -0.01211002
H        5.05541436       7.96130167      11.70750440       0.00955888      -0.00502642      -0.00199731
C        7.52499202       5.67924294      12.30147781       0.00038440       0.00532810      -0.00871354
C        6.59452011       6.50712888      15.87431828      -0.00847056       0.00071690       0.01084961
C        6.64449617       6.52738569      10.08350000       0.00249208      -0.01312017       0.01688457
C        5.74007948       7.32795312      12.26807728       0.01062134      -0.00587779      -0.01165183
O        5.75711365       7.28827644      16.44488925      -0.02773370       0.00553973       0.00525445
C        6.60525549       6.51042111      14.38330389      -0.00013060       0.00130586      -0.01042531
H        8.17845816       5.04735386      14.25253186       0.00581698      -0.00222736       0.01149137
O        5.81694180       7.28553228       9.49150856       0.01000854      -0.02986330      -0.00049122
O        7.42467618       5.72414575      16.45299885       0.00961059      -0.00994013      -0.00027817
O        7.49973338       5.75786808       9.48611460      -0.01246795      -0.00142454       0.00325051
H        5.02337600       7.96765098      14.19763047      -0.00408706       0.00581189       0.00005404
C        7.49528310       5.68959130      13.70357420       0.00698925      -0.00209318      -0.00553126
C       -6.54284709      11.61796818      -6.48866115       0.00006710       0.00018609       0.00055763
O       -8.22627513      11.77401861      -4.74845288      -0.00151405       0.00049435      -0.00135871
H       -8.07977711      10.78889780      -4.88724227      -0.00082330       0.00086732       0.00034407
C       -5.69175687      13.70458497      -7.38923115       0.00046222       0.00055197       0.00023139
H       -5.05457756      11.74392234      -8.02259252       0.00069940       0.00007143       0.00011050
C       -7.39688748      12.36769023      -5.61916277      -0.00039016       0.00067116      -0.00031105
C       -6.53062361      15.93057476      -6.55392255       0.00014730      -0.00083231      -0.00160326
C       -6.54044180      10.14076716      -6.46833651       0.00082020      -0.00075598       0.00142204
C       -5.70381941      12.31369228      -7.36114430       0.00032075       0.00040678       0.00034835
O       -5.70313745      16.49816956      -7.34808287      -0.00150757      -0.00017485      -0.00038562
C       -6.53385120      14.43887285      -6.53569648      -0.00023570      -0.00042262      -0.00004386
H       -8.03648341      14.32789010      -4.99869782      -0.00025943      -0.00002184      -0.00029546
O       -5.75455116       9.54277977      -7.26685126      -0.00017588       0.00036279       0.00039385
O       -7.35883419      16.51094476      -5.76982250      -0.00085118       0.00041537      -0.00077747
O       -7.33883495       9.55014134      -5.63849972       0.00333733       0.00120494       0.00224007
H       -5.03051893      14.23412072      -8.07230572       0.00064924       0.00022519       0.00068140
C       -7.38020159      13.76955126      -5.66110737      -0.00017973       0.00049340      -0.00015241
C      -14.43538202       6.51461830      -6.53804259       0.01328141      -0.01724602      -0.01534007
O      -14.28810318       4.73261712      -8.17904342      -0.00097458       0.00080168      -0.00269587
H      -15.27308110       4.88909112      -8.04202645       0.00832046      -0.01091362      -0.00372008
C      -12.34121445       7.41182894      -5.70117838      -0.00080626      -0.00023570      -0.00233598
H      -14.29627949       8.08446401      -5.08717319      -0.00960073      -0.00357459      -0.00312831
C      -13.69038234       5.61456798      -7.36488240       0.00370597      -0.00338978      -0.00583212
C      -10.12063348       6.53083651      -6.51020632      -0.00071869       0.00144679       0.00430505
C      -15.91266686       6.50695485      -6.54845921      -0.00366983      -0.00466257      -0.00173124
C      -13.73274735       7.39979096      -5.71750463      -0.00326479      -0.00665857      -0.00726287
O       -9.54922690       7.35956651      -5.72061980       0.00128094       0.00118780       0.00368923
C      -11.61260361       6.52818536      -6.51711576       0.00026096      -0.00549159      -0.00604297
H      -11.73681325       4.94839272      -7.97479830       0.00590143       0.00495202       0.00373877
O      -16.51260685       7.32715579      -5.78769190      -0.00237054      -0.00195855      -0.00220535
O       -9.54410891       5.70275213      -7.29772918      -0.00250051      -0.00059841       0.00632383
O      -16.50366538       5.66292911      -7.33301353       0.00973385      -0.01354565      -0.00478301
H      -11.80466040       8.10551598      -5.05685848      -0.00648874       0.00535723       0.00344696
C      -12.28824139       5.63729393      -7.34025556      -0.00128477      -0.00232982      -0.00471157
C       -6.47603851      -6.52216725     -14.47728207       0.00001340      -0.00016477      -0.00131469
O       -4.67429564      -8.13983510     -14.31849424       0.00184971      -0.00051746       0.00139718
H       -4.82150866      -8.00399945     -15.30421247       0.00173735      -0.00094636       0.00146021
C       -7.39616705      -5.68819994     -12.39213799      -0.00120038      -0.00029471      -0.00292166
H       -8.06163911      -5.08889202     -14.35456060       0.00104800      -0.00252269       0.00074448
C       -5.57033146      -7.33661273     -13.72697408       0.00139443      -0.00102979      -0.00110348
C       -6.52274978      -6.49055026     -10.16712788      -0.00409753       0.00408414       0.01086244
C       -6.46527830      -6.53373680     -15.95489079       0.00100617      -0.00082872       0.00293542
C       -7.37440307      -5.70936146     -13.78307612      -0.00036082      -0.00103504      -0.00128239
O       -7.37433782      -5.72365474      -9.59554200       0.00238006       0.00166067      -0.00013421
C       -6.50807373      -6.49343071     -11.65757116       0.00158585      -0.00028385       0.00044421
H       -4.91149408      -7.93305058     -11.76663668       0.00162794      -0.00070144       0.00263846
O       -7.30063462      -5.79172898     -16.55604061       0.00211972      -0.00145584       0.00086992
O       -5.67780861      -7.25853377      -9.58920136      -0.00163625      -0.00105116       0.00322907
O       -5.60396918      -7.30164136     -16.54137922      -0.00042709       0.00012439       0.00073398
H       -8.10068055      -5.04944154     -11.86307607      -0.00079275      -0.00197985      -0.00033275
C       -5.60333414      -7.30842909     -12.32544065       0.00112195      -0.00064048       0.00062645
C       -6.49945336       6.54818733     -11.58855030      -0.00119262      -0.00065810       0.00095620
O       -8.29038476       4.91864677     -11.75567498       0.00017256      -0.00123011       0.00146565
H       -8.14146142       5.04791654     -10.76950236       0.00019889      -0.00015084       0.00148140
C       -5.58285234       7.39377506     -13.67108154      -0.00068561      -0.00049367       0.00130467
H       -4.92780982       7.99744799     -11.70662065      -0.00135765      -0.00038291       0.00139740
C       -7.39637657       5.72734371     -12.34303028      -0.00041555      -0.00101782       0.00098210
C       -6.43538264       6.57638371     -15.90065870       0.00026252      -0.00042775       0.00038859
C       -6.51078767       6.52959342     -10.11124584      -0.00158031      -0.00093903       0.00126089
C       -5.60779731       7.37084361     -12.28000384      -0.00111429      -0.00049182       0.00121357
O       -5.62534212       7.38560186     -16.47138459       0.00044475      -0.00061579       0.00035744
C       -6.45834030       6.57810183     -14.40933909      -0.00010924      -0.00068445       0.00071807
H       -8.03985081       5.12179879     -14.30585541       0.00074146      -0.00104706       0.00026273
O       -5.68874618       7.28465184      -9.50530857      -0.00129479      -0.00049524       0.00085065
O       -7.23369399       5.75878257     -16.47687067       0.00011495      -0.00024359       0.00025435
O       -7.35775902       5.74372763      -9.52789339      -0.00109968      -0.00069024       0.00146893
H       -4.88446610       8.04090348     -14.19819337      -0.00077437      -0.00034513       0.00172252
C       -7.35729035       5.75442504     -13.74453121       0.00015383      -0.00091202       0.00077351
C      -11.63716862      -6.50650890      -6.52608458      -0.00438840      -0.00199365       0.00303175
O      -11.79245321      -8.24101257      -4.83511167       0.00384000      -0.00169139       0.00132644
H      -10.80749793      -8.10026170      -4.97825877       0.00128820      -0.00057554      -0.00065051
C      -13.72446786      -5.63650394      -7.40714123      -0.00383089      -0.00273536       0.00381727
H      -11.76434024      -4.97630886      -8.01860209       0.00037643       0.00143642      -0.00069158
C      -12.38555914      -7.38281504      -5.67787012       0.00207088       0.00053038      -0.00075679
C      -15.94907317      -6.50984599      -6.59567994       0.01499517      -0.01291875       0.00733255
C      -10.16155640      -6.51221845      -6.51275055       0.01190149       0.00604407      -0.00531195
C      -12.33360694      -5.64453822      -7.37584256      -0.00305350       0.00028479       0.00052286
O      -16.52304830      -5.70940740      -7.41046684      -0.01888277      -0.00817465      -0.01017920
C      -14.45711553      -6.49960085      -6.57321870      -0.00031352      -0.00117469       0.00216731
H      -14.34440058      -8.03023564      -5.06459568       0.00039330      -0.00199144       0.00123941
O       -9.56315850      -5.69247293      -7.27775695      -0.00024224      -0.00103423       0.00320781
O      -16.51988644      -7.32587883      -5.79131472       0.00464582       0.00014260       0.00342558
O       -9.56893849      -7.34969115      -5.72468425       0.00078271      -0.00469633       0.00230706
H      -14.25562692      -4.96308714      -8.07697093      -0.00068941      -0.00111974       0.00311703
C      -13.78697863      -7.36118215      -5.71484570       0.00246007      -0.00328776       0.00299014
C        6.55843832      -1.45696667      -6.55487879       0.01184243      -0.00743536      -0.00909765
O        5.05388055      -1.32879382      -4.65317811      -0.00585613       0.01655723       0.00730441
H        5.18344451      -2.31172077      -4.82460297       0.00228562       0.01079984       0.00034904
C        7.32265481       0.64618078      -7.49431049      -0.00191847       0.01296380       0.01144858
H        7.88728379      -1.30321567      -8.22534117       0.00033100      -0.00400780      -0.00305188
C        5.79747733      -0.72237808      -5.58975848       0.00690431      -0.00148096      -0.00413600
C        6.58057833       2.85773168      -6.53133276       0.01716065      -0.00145968      -0.01752042
C        6.55792179      -2.93441800      -6.56480216      -0.06187951       0.00381993       0.07696931
C        7.30861455      -0.74521973      -7.49224001       0.00676597       0.00968703      -0.00572305
O        7.32350071       3.43411676      -7.39941280       0.00985367       0.02284441      -0.00999107
C        6.57459440       1.36535761      -6.54447306      -0.00371500       0.00529088       0.01227520
H        5.23361708       1.22542281      -4.86745966      -0.00157069       0.00435711       0.00216731
O        7.25337745      -3.53223552      -7.43975598      -0.02322425       0.03389283       0.00692749
O        5.84657563       3.43095183      -5.65295262      -0.00811594      -0.01514601      -0.02285407
O        5.83611410      -3.52792999      -5.66434619      -0.01397665      -0.05638414      -0.01200671
H        7.91413701       1.18786355      -8.22995443      -0.00254681       0.00032600       0.00187296
C        5.81725058       0.67993809      -5.60424665      -0.00004450       0.00190744       0.00836786
C       -6.52598591      -1.41482845      -6.55176787       0.00613163      -0.00873296       0.01066160
O       -8.10521920      -1.25478489      -8.38572138      -0.01703130       0.00461626      -0.01791555
H       -7.99513782      -2.23949017      -8.21744799      -0.00248460      -0.00804486      -0.00181096
C       -5.71068054       0.67126271      -5.61655026      -0.00075881      -0.00124049      -0.00350336
H       -5.12509721      -1.28936854      -4.93445910      -0.01273336      -0.00143083      -0.01478982
C       -7.31624556      -0.66366289      -7.47689355      -0.00812020       0.00189993      -0.00898595
C       -6.47916103       2.89778114      -6.51690160      -0.00102399      -0.00125581       0.00338166
C       -6.53793134      -2.89262665      -6.56538438      -0.01255612       0.01042246      -0.01327601
C       -5.73118079      -0.72002661      -5.63673667      -0.00327938       0.00077953      -0.00456026
O       -5.72896680       3.46253828      -5.64771131       0.00076424       0.00098479       0.00019616
C       -6.48907000       1.40631731      -6.52864541       0.00439828      -0.00128014       0.00270260
H       -7.88699382       1.29530775      -8.16167939      -0.00071972       0.00754811      -0.00102264
O       -5.76591368      -3.49370042      -5.75868553       0.00170508      -0.00409370      -0.00006016
O       -7.22328733       3.48112572      -7.37945025      -0.00562850      -0.00027031       0.00568527
O       -7.33638566      -3.48031958      -7.40068849       0.01139144       0.00278465       0.01028457
H       -5.09184920       1.20232177      -4.89559344      -0.00031854      -0.01033976      -0.00260601
C       -7.28221518       0.73792249      -7.45140189      -0.00036361       0.00382391      -0.00198585
C        6.54331966       6.46660689      -1.46241342      -0.00443878      -0.00221232       0.00573774
O        4.71131347       4.88446285      -1.29680033      -0.00114328       0.00057891      -0.00136614
H        4.85733752       5.01856047      -2.28281366      -0.00148331      -0.00035296       0.00020846
C        7.50886767       7.25624860       0.62029632       0.00099436       0.00056678      -0.00233941
H        8.16664202       7.85767787      -1.34365906       0.00042952      -0.00043579      -0.00296392
C        5.62775325       5.66667147      -0.70805935      -0.00053512       0.00088478      -0.00061171
C        6.62585180       6.47448912       2.85012405      -0.00112187       0.00126963      -0.00135780
C        6.51296313       6.47072528      -2.93955166      -0.00288794      -0.00184500      -0.01058750
C        7.47018051       7.24915269      -0.77066654       0.00032283       0.00031421      -0.00022747
O        7.50688853       7.20722488       3.42025548       0.00107214      -0.00070031      -0.00193245
C        6.60515923       6.47227809       1.35869506      -0.00064991       0.00030831      -0.00279980
H        4.97081585       5.07541602       1.25500515      -0.00044233       0.00067919      -0.00071473
O        7.33904543       7.22305948      -3.54296553      -0.00389464       0.00264863       0.00259486
O        5.75359049       5.73871043       3.42922578      -0.00359686       0.00419827      -0.00146312
O        5.64686131       5.70784539      -3.52601598       0.00043802      -0.00681773       0.00092843
H        8.23738337       7.86951685       1.14727134      -0.00116782      -0.00202581      -0.00323683
C        5.67359036       5.68547524       0.69356954      -0.00018257       0.00064797       0.00019130
C        6.59781879      -1.43821086       6.50921232       0.00120978       0.00014120       0.00172549
O        8.24455072      -1.31275838       8.28756739      -0.00074146       0.00231988       0.00386206
H        8.09811422      -2.29513541       8.13120047       0.00345332       0.00253830       0.00100366
C        5.77671366       0.66431358       5.61959701      -0.00133581      -0.00253278      -0.00000577
H        5.15158462      -1.28339940       4.93707054       0.00123376      -0.00120964       0.00335051
C        7.43223661      -0.70360026       7.41119442      -0.00095256      -0.00030490       0.00153819
C        6.59489734       2.87493521       6.50655408      -0.00117227       0.00167160      -0.00164258
C        6.59441195      -2.91472174       6.50510623       0.00277450       0.00168503       0.00223882
C        5.78417929      -0.72683931       5.62550097       0.00026141      -0.00102574       0.00190873
O        5.81665691       3.44851190       5.66855324      -0.00389870       0.00054390      -0.00129068
C        6.59528686       1.38349936       6.50835441      -0.00143707      -0.00122462       0.00006790
H        8.05480469       1.24495017       8.08422507      -0.00077320       0.00235920       0.00183856
O        5.82692045      -3.50064156       5.67864424      -0.00093456      -0.00050604       0.00783334
O        7.37299888       3.45176017       7.34473518       0.00279794       0.00136445      -0.00245566
O        7.37209889      -3.52021564       7.34315237       0.00742287       0.00099390      -0.00348125
H        5.13649636       1.20604026       4.92602373      -0.00042232      -0.00201699       0.00016549
C        7.41645690       0.69877165       7.39477268      -0.00110959       0.00071742       0.00139764
C        6.55074269      -6.59715169      -1.47407228       0.00033138      -0.00204103       0.00648550
O        8.34422766      -8.22631488      -1.33290752      -0.00200934       0.00033172       0.00055233
H        8.18427698      -8.09346917      -2.31661890       0.00188142      -0.00301803       0.00218775
C        5.65154052      -5.76353656       0.62009039      -0.00057604       0.00062555       0.00062163
H        4.97237969      -5.15786472      -1.33516484      -0.00371414       0.00273967       0.00086504
C        7.45820360      -7.41854529      -0.73192618      -0.00412040       0.00243081      -0.00096227
C        6.54874221      -6.55710905       2.83787430       0.00121839       0.00197551       0.00009514
C        6.55228348      -6.60105639      -2.95005084      -0.01073614       0.01551090      -0.01575234
C        5.66164449      -5.78246835      -0.77093420      -0.00428517       0.00358813       0.00280719
O        5.72715969      -5.76126007       3.41392076       0.00271887       0.00368111       0.00078026