448
Lattice="26.066318999607947 0.0 0.0 0.0 26.066318999607947 0.0 0.0 0.0 26.066318999607947" Properties=species:S:1:pos:R:3:forces:R:3 energy=-3064.9006132325317 stress="3.492335206600229e-06 8.004713610009722e-06 7.526327546617041e-06 8.004713610009722e-06 8.890516356545308e-07 -6.82042730244305e-06 7.526327546617041e-06 -6.82042730244305e-06 3.0366663864598914e-06" pbc="T T T"
C        6.57362816      14.39957600       6.40519733       0.00197891       0.00037578      -0.00150580
O        8.31880832      14.26284084       4.72553799       0.00271472      -0.00483910      -0.00160466
H        8.16774447      15.24686071       4.87169659       0.00253769      -0.00633132      -0.00311887
C        5.70703052      12.30366972       7.26789305       0.00102383      -0.00096057      -0.00063720
H        5.03744763      14.25743764       7.88964120       0.00004602       0.00130287      -0.00091305
C        7.45833398      13.65985727       5.55857285       0.00459079      -0.00071194      -0.00430336
C        6.58621521      10.08861518       6.44756521       0.00643366      -0.02138867      -0.00410289
C        6.57179652      15.87718473       6.39904546       0.00500566       0.00030222      -0.00523898
C        5.71059548      13.69462285       7.24638119       0.00129592       0.00336471      -0.00185222
O        5.77657838       9.51217542       7.25491435      -0.00779810       0.00027713       0.00731381
C        6.57744009      11.57921981       6.43441090       0.00235002      -0.00191787      -0.00084105
H        8.11901447      11.70760918       4.93738752      -0.00068414      -0.00379100       0.00013726
O        5.75582620      16.46849854       7.16976559       0.00381195      -0.00226128      -0.00080190
O        7.40585675       9.51384287       5.64997321       0.00445750       0.00207839      -0.00246021
O        7.40400658      16.47385531       5.60710709      -0.00024155      -0.00414576      -0.00481549
H        5.03092972      11.76677942       7.93019783      -0.00239554      -0.00272770       0.00132859
C        7.44293669      12.25778221       5.58651522       0.00416941       0.00195869      -0.00361764
C      -14.33425694       6.49456822       6.48879310       0.00517465       0.00656784      -0.00801016
O      -14.19045371       8.37419494       4.96207703       0.00139346       0.00255718      -0.00243316
H      -15.17459331       8.19513285       5.07123202       0.00499302       0.00501478      -0.00463483
C      -12.24044560       5.55156031       7.27465926       0.00064396       0.00172967      -0.00214001
H      -14.19559170       4.83718413       7.83940758      -0.00588351       0.00789671      -0.00592944
C      -13.59088286       7.44849488       5.72487740      -0.00276419       0.00610916      -0.00602732
C      -10.02192737       6.49583198       6.53604522       0.00261785       0.00297240      -0.00720613
C      -15.81222165       6.49680190       6.47538022       0.00438836       0.00214552      -0.00216405
C      -13.63185263       5.56155860       7.25500518       0.00164628       0.00679552      -0.00550977
O       -9.44460778       5.61815678       7.26621516       0.00169209      -0.00038381       0.00156085
C      -11.51289502       6.49149582       6.52293379      -0.00102710       0.00219871      -0.00042646
H      -11.63812360       8.16461442       5.17371579       0.00936138       0.00035686      -0.00110894
O      -16.40613556       5.65699177       7.21775122      -0.00706654       0.00123489      -0.00108958
O       -9.44780820       7.38130880       5.80952582      -0.00061698       0.00008797      -0.00281503
O      -16.40608706       7.35435301       5.70795473       0.00682335      -0.00021213      -0.00137875
H      -11.70368309       4.81713983       7.87225679      -0.00724108       0.00035187       0.00067992
C      -12.18901250       7.43236515       5.75780442      -0.00159914       0.00293791      -0.00399832
C       -6.37507546      11.64274449       6.50601118       0.00231779      -0.00145369       0.00258128
O       -4.71559065      11.80066851       8.26983558       0.00096784       0.00050117       0.00250013
H       -4.85513959      10.81549926       8.12545044       0.00249773      -0.00089848       0.00374390
C       -7.23301249      13.72917198       5.61192879      -0.00218670      -0.00547120      -0.00260980
H       -7.84057341      11.76856935       4.94910043       0.00513595       0.00090067       0.00190665
C       -5.54287690      12.39318841       7.39623739       0.00221615       0.00032583       0.00359789
C       -6.43611975      15.95599116       6.48604354      -0.01376552       0.01762616      -0.01393267
C       -6.36621223      10.16640896       6.51893309       0.00037647      -0.00039879       0.00206861
C       -7.20744366      12.33814039       5.62646240       0.00225712      -0.00232741       0.00113122
O       -7.21197031      16.52190593       5.64164571       0.01026222      -0.01603840       0.00488063
C       -6.41653048      14.46375886       6.48972894      -0.00023138      -0.00232367      -0.00308275
H       -4.94262948      14.35393644       8.05368384       0.00151835      -0.00130666       0.00353407
O       -7.12904743       9.56567035       5.69906173       0.00138059       0.00008563       0.00659079
O       -5.67153203      16.53661115       7.33285135       0.00231391      -0.01300081       0.01427626
O       -5.58357193       9.57565698       7.36323558       0.00292579      -0.00024889       0.00272491
H       -7.88613491      14.25899092       4.92124357       0.00205211       0.00004093       0.00112995
C       -5.57844026      13.79493864       7.37223869      -0.00245847       0.00307717      -0.00089849
C      -11.55686350      -6.53534920       6.44192499      -0.00952922       0.04704752       0.04589847
O      -11.70345073      -4.77266694       8.10575781       0.01483521      -0.00470173      -0.00693335
H      -10.71964331      -4.92727798       7.96458497       0.01217296       0.01738124       0.01688471
C      -13.65226834      -7.43342463       5.60950893       0.02926289      -0.00634107      -0.00685527
H      -11.69613815      -8.09476901       4.98000592      -0.00183619       0.00605613       0.00667527
C      -12.30002658      -5.64524390       7.28027722      -0.02526216       0.01323779       0.00849172
C      -15.86946920      -6.55903562       6.42762091      -0.00336551       0.00059187       0.00310493
C      -10.07961224      -6.52006795       6.45003450       0.00517188      -0.03069889      -0.02502221
C      -12.26067142      -7.41742308       5.61777381       0.02960905       0.02557061       0.02244507
O      -16.44248976      -7.41734796       5.67137690      -0.00315180      -0.00104418       0.00456224
C      -14.37828407      -6.55285054       6.43087644      -0.00259834      -0.01270863      -0.00966113
H      -14.25306636      -4.98186247       7.89698345      -0.00261226      -0.00083561      -0.00294342
O       -9.48254289      -7.32315709       5.67044679      -0.03751294       0.00102649       0.00366201
O      -16.44519812      -5.70234194       7.18455429      -0.00158509       0.00019189       0.00701295
O       -9.48455690      -5.69182938       7.24918660      -0.00750433       0.03190985       0.03627892
H      -14.18858675      -8.12772542       4.96558643      -0.00122979       0.00033780       0.00031387
C      -13.70165917      -5.66646373       7.25782316      -0.02112659      -0.00583843      -0.00795723
C        6.48257145      -6.59666879      14.36002718      -0.00037907      -0.00025623      -0.00028387
O        4.76505097      -8.30211477      14.20599503       0.00084224       0.00081937      -0.00219792
H        4.90211567      -8.15248955      15.19087497      -0.00025303      -0.00028315      -0.00216636
C        7.38330194      -5.74351932      12.27537324      -0.00028252       0.00181196      -0.00032059
H        8.00592458      -5.09678023      14.23578981      -0.00146372      -0.00058667       0.00062234
C        5.62319188      -7.46101227      13.61062535       0.00064331       0.00106164      -0.00113552
C        6.55646106      -6.58251639      10.04872188      -0.00293601      -0.00410977       0.00272579
C        6.46133142      -6.59111845      15.83725069      -0.00022894      -0.00108453       0.00024143
C        7.35094515      -5.75235367      13.66585225      -0.00088731       0.00022503      -0.00059480
O        7.36929074      -5.76687318       9.48960849       0.00366889       0.00104333       0.00248274
C        6.53506267      -6.59025464      11.54083380       0.00011332       0.00093295       0.00083982
H        5.00787790      -8.10319440      11.64902846       0.00085876       0.00176715      -0.00123105
O        7.24781133      -5.79142963      16.43031565       0.00026338      -0.00199178       0.00087066
O        5.75796221      -7.39172368       9.46376851       0.00086196      -0.00113659      -0.00043269
O        5.64375992      -7.40031163      16.43037315      -0.00054610      -0.00069996       0.00015269
H        8.06499493      -5.08019877      11.74677909      -0.00006093       0.00266317       0.00061512
C        5.66494311      -7.44283747      12.20879218       0.00004537       0.00112278      -0.00075903
C        6.49653639      11.58117351      -6.60269091       0.00013845      -0.00064949      -0.00040422
O        4.84669142      11.72242388      -8.37683545       0.00052237      -0.00039877      -0.00065434
H        4.98473534      10.73850449      -8.22151731       0.00096575      -0.00043830      -0.00119084
C        7.33203937      13.67643617      -5.70722530      -0.00052345      -0.00079761       0.00063231
H        7.94961879      11.72187674      -5.03654406      -0.00058463      -0.00099283       0.00031050
C        5.66582750      12.32320459      -7.50137654       0.00026166      -0.00046732      -0.00032576
C        6.52018939      15.89450211      -6.58901443       0.00032037      -0.00056787       0.00043110
C        6.49274776      10.10360859      -6.60453737       0.00047762      -0.00071226      -0.00089883
C        7.31744361      12.28523295      -5.71968861      -0.00036545      -0.00080973       0.00021462
O        7.28528169      16.46900972      -5.73915216       0.00039274      -0.00062211       0.00036870
C        6.51584319      14.40277344      -6.59219267      -0.00008773      -0.00052513       0.00045381
H        5.05884270      14.27750128      -8.17133489       0.00022740      -0.00037456       0.00009712
O        7.26071561       9.51053532      -5.78476133      -0.00014964      -0.00066745      -0.00037841
O        5.75510829      16.46874608      -7.43903245       0.00055166      -0.00054505       0.00029793
O        5.70662986       9.50750627      -7.44188373       0.00134689      -0.00067052      -0.00183026
H        7.97568396      14.21266277      -5.01259947      -0.00087380      -0.00100601       0.00110083
C        5.69235505      13.72541015      -7.48205295       0.00013628      -0.00043428       0.00013016
C        6.62920095       6.52310603      11.56443622      -0.00387155       0.00129621      -0.00555736
O        4.85352041       8.17346658      11.68387913      -0.00310209       0.00336051       0.00619532
H        5.01332058       8.02458613      10.70182249      -0.00848718       0.00636798       0.00512200
C        7.49899410       5.68975809      13.67165674      -0.00139336       0.00408979      -0.00615306
H        8.18998658       5.06536805      11.72607566      -0.00246655       0.00672666      -0.00363536
C        5.72424292       7.35704896      12.29495446      -0.00340504       0.00291823       0.00191836
C        6.59045684       6.50534097      15.87734675      -0.00034264      -0.00220200      -0.00021940
C        6.63712719       6.52106004      10.08652021      -0.01429383       0.00884117       0.01880192
C        7.50260636       5.70129389      12.28022429      -0.00419943       0.00607240      -0.00750059
O        7.43003681       5.73621782      16.46026697       0.00005748      -0.00358213      -0.00313540
C        6.60854606       6.51109605      14.38599111      -0.00049228       0.00092247      -0.00063739
H        5.03513976       7.97226928      14.23960176       0.00122597       0.00094091       0.00290970
O        7.46965997       5.76509541       9.49939239      -0.01183983       0.00527994      -0.00541250
O        5.73560322       7.27262228      16.44219764      -0.00078257      -0.00332816       0.00094018
O        5.78944647       7.29417945       9.48368855       0.00160000      -0.00645987      -0.00438879
H        8.18443149       5.04439236      14.21777047       0.00107419       0.00331454      -0.00422080
C        5.72918417       7.33565780      13.69725227      -0.00060754       0.00189852       0.00008458
C       -6.53320453      11.61985126      -6.49850696      -0.00196282      -0.00293156       0.00295531
O       -8.21030761      11.76486238      -4.75187968      -0.00295528       0.00434750       0.00192197
H       -8.05740786      10.78051676      -4.89300759      -0.00558337       0.00442318       0.00380873
C       -5.69126591      13.71236750      -7.39415659      -0.00054833      -0.00386492       0.00046698
H       -5.04949344      11.75631354      -8.03693792      -0.00262316      -0.00243643       0.00344029
C       -7.38683990      12.36430836      -5.62409121      -0.00116327      -0.00037532       0.00095980
C       -6.53622447      15.93274963      -6.55183893       0.00168185       0.00102094      -0.00096674
C       -6.52840916      10.14224862      -6.48224367      -0.00282179       0.00836323       0.00464452
C       -5.69878365      12.32122789      -7.37127193      -0.00274786      -0.00443995       0.00337446
O       -5.70983633      16.50321009      -7.34486463       0.00231403      -0.00096551      -0.00165869
C       -6.53455583      14.44106516      -6.53696212      -0.00014971       0.00006165      -0.00009874
H       -8.03244922      14.31988345      -4.99603268      -0.00152252       0.00340218      -0.00002199
O       -5.74992192       9.54830895      -7.29053515      -0.00506644      -0.00044053       0.01102969
O       -7.36592972      16.51029164      -5.76712990       0.00185149       0.00016991      -0.00010164
O       -7.31753682       9.54754284      -5.64560932       0.00120195      -0.00007415      -0.00256527
H       -5.03286205      14.24685600      -8.07612366       0.00088313      -0.00222488      -0.00123934
C       -7.37596260      13.76630871      -5.66208006      -0.00131064      -0.00010442       0.00055634
C      -14.43382683       6.48216081      -6.56076313       0.00024876       0.00019412       0.00055415
O      -14.26750708       4.70268994      -8.20309174       0.00105817       0.00153517       0.00213260
H      -15.25364221       4.84444239      -8.06678096       0.00251477       0.00053326       0.00091847
C      -12.35140930       7.39618478      -5.71327953      -0.00046195       0.00152382       0.00044953
H      -14.31592066       8.05215405      -5.11032446       0.00160731       0.00019103      -0.00010046
C      -13.67953226       5.58939368      -7.38663389      -0.00076053       0.00049704       0.00110145
C      -10.12119762       6.52799162      -6.50933551       0.00929071       0.00062868      -0.00022144
C      -15.91103338       6.46828833      -6.57361725       0.00231524       0.00036583       0.00034972
C      -13.74231902       7.37276727      -5.73738377      -0.00174122      -0.00015525      -0.00041804
O       -9.55358232       7.36020556      -5.72029758       0.00204395       0.00434619       0.00346413
C      -11.61275029       6.51838866      -6.52598055      -0.00011242      -0.00016826      -0.00101719
H      -11.71668311       4.94321668      -7.98947723       0.00154676      -0.00001736       0.00137502
O      -16.51622936       7.29343515      -5.82140240       0.00108822      -0.00025806      -0.00073091
O       -9.54012932       5.69829438      -7.29160611       0.00183109      -0.00286730      -0.00390218
O      -16.49474738       5.61486521      -7.35192379       0.00094442       0.00113719       0.00115446
H      -11.82509597       8.09396438      -5.06508908       0.00236958       0.00271187       0.00127266
C      -12.27780134       5.62511164      -7.35594528      -0.00201853      -0.00133818      -0.00074902
C       -6.48822656      -6.50282499     -14.47123006      -0.00010227      -0.00479380      -0.00396937
O       -4.69436402      -8.13206602     -14.32168976       0.00185634      -0.00065434      -0.00050662
H       -4.84355467      -7.99225301     -15.30614260       0.00354273      -0.00164076      -0.00188377
C       -7.39809896      -5.67546717     -12.37895607      -0.00098623       0.00064764      -0.00267775
H       -8.06749458      -5.06245320     -14.33558184       0.00128592      -0.00409064      -0.00157898
C       -5.58443143      -7.32500906     -13.72564655       0.00352743      -0.00334685       0.00439588
C       -6.51971536      -6.48519183     -10.15829381      -0.00080689       0.00030612      -0.00036550
C       -6.48283679      -6.51241452     -15.94790316       0.01982036      -0.02355316       0.02282040
C       -7.38089815      -5.68935104     -13.77027685       0.00297515      -0.00472057      -0.00452689
O       -7.36554240      -5.71423536      -9.58403707      -0.00181474       0.00077292      -0.00209946
C       -6.51036439      -6.48578650     -11.64951900      -0.00183997       0.00186237      -0.00010916
H       -4.92173306      -7.93283688     -11.76945443       0.00140900       0.00078582      -0.00075838
O       -7.32022899      -5.76780346     -16.54704116      -0.00313720      -0.00067300      -0.01392765
O       -5.67739424      -7.25779617      -9.58265948      -0.00081910       0.00026212      -0.00055041
O       -5.62644216      -7.28100333     -16.54036720      -0.00218458       0.00318623      -0.00990841
H       -8.09945580      -5.03753186     -11.84481054      -0.00211856       0.00226167      -0.00104504
C       -5.61211506      -7.30250915     -12.32384123      -0.00009658       0.00104448       0.00208840
C       -6.49705231       6.55208327     -11.59213096       0.00867548       0.00852033       0.00023960
O       -8.29011833       4.92665251     -11.75670168      -0.01057003      -0.00934314       0.00025910
H       -8.14174970       5.05880201     -10.77060866       0.00008561      -0.00304040       0.00037358
C       -5.57777296       7.39302104     -13.67559545       0.00097095       0.00308307       0.00463073
H       -4.91938275       7.99651352     -11.71238260      -0.00970234      -0.00860745       0.00177284
C       -7.39512209       5.73258276     -12.34579720      -0.00338176      -0.00141950       0.00369737
C       -6.43923096       6.58514354     -15.90407507       0.00141666      -0.00365216       0.00078803
C       -6.51028152       6.53596504     -10.11485562      -0.00024451      -0.00355073      -0.00122156
C       -5.60216360       7.37112177     -12.28427987       0.00218155       0.00339854      -0.00402630
O       -5.62994049       7.39545495     -16.47462601      -0.00024447      -0.00452221       0.00095619
C       -6.45813633       6.58160315     -14.41285480       0.00912209       0.00882971       0.00284360
H       -8.04096519       5.12693515     -14.30734653      -0.00413084      -0.00417775      -0.00579401
O       -5.68684855       7.29059822      -9.51078024      -0.00010331      -0.00547853       0.00123088
O       -7.24032209       5.77070851     -16.48054752       0.00205373      -0.00886346      -0.00059248
O       -7.35922856       5.75325852      -9.52958356       0.00226267      -0.00323429       0.00391859
H       -4.87677720       8.03658941     -14.20430073      -0.00778308      -0.00430806       0.01073956
C       -7.35699006       5.75864816     -13.74718839       0.00159411       0.00284451      -0.00190691
C      -11.63431263      -6.50040425      -6.53284873       0.00100662      -0.00066228       0.00132101
O      -11.79005549      -8.23008456      -4.83693966       0.00109173      -0.00140091       0.00045278
H      -10.80492715      -8.08996041      -4.98096406       0.00112126      -0.00157004       0.00018796
C      -13.72185709      -5.63407938      -7.41759588       0.00106540      -0.00066776       0.00115822
H      -11.76169706      -4.97552982      -8.03113699       0.00118393       0.00000287       0.00216339
C      -12.38282106      -7.37456738      -5.68264016       0.00101229      -0.00100420       0.00089397
C      -15.94632057      -6.50569587      -6.60356649       0.00062578      -0.00062334       0.00076912
C      -10.15821892      -6.50472229      -6.51629086       0.00091226      -0.00087520       0.00121373
C      -12.33086873      -5.64168000      -7.38601347       0.00105049      -0.00039694       0.00162373
O      -16.52331221      -5.71097230      -7.42216606       0.00052450      -0.00092547       0.00039432
C      -14.45444665      -6.49494206      -6.58166964       0.00077233      -0.00081604       0.00082122
H      -14.34152820      -8.02131209      -5.06840501       0.00097402      -0.00109387       0.00076023
O       -9.55827887      -5.68363025      -7.27826884       0.00083558      -0.00004181       0.00169648
O      -16.51374198      -7.31759713      -5.79265747       0.00075983      -0.00016252       0.00126185
O       -9.56706754      -7.34313583      -5.72789850       0.00106777      -0.00146981       0.00011308
H      -14.25360992      -4.96272475      -8.08899785       0.00126200      -0.00064352       0.00106365
C      -13.78428024      -7.35383568      -5.72043308       0.00090266      -0.00090763       0.00080378
C        6.54677023      -1.45254240      -6.54422513      -0.00404453      -0.00046824       0.00410112
O        5.04224262      -1.31938767      -4.64523905      -0.00262411       0.00335935       0.00517694
H        5.16578574      -2.30236180      -4.81817119      -0.00542094       0.00304641       0.00563752
C        7.32198661       0.64648385      -7.48391476      -0.00077620      -0.00250308       0.00228787
H        7.87976047      -1.30450798      -8.21428485      -0.00313003      -0.00420686       0.00474020
C        5.78857817      -0.71453434      -5.58096126      -0.00240839       0.00149306       0.00408043
C        6.57672546       2.86023985      -6.53701533      -0.00090719      -0.00084329      -0.00233168
C        6.53199666      -2.92977648      -6.55505018      -0.00624501      -0.00060174       0.00437297
C        7.30248562      -0.74469910      -7.48132667      -0.00260233      -0.00245075       0.00385516
O        7.32573821       3.43399607      -7.40127021      -0.00049120      -0.00203821      -0.00282499
C        6.57248060       1.36865565      -6.53833002      -0.00057328      -0.00067230       0.00084908
H        5.22697343       1.23643116      -4.86383719       0.00118697       0.00303190       0.00247182
O        7.22652880      -3.52028179      -7.43750083      -0.00686637      -0.00177708       0.00444505
O        5.83048950       3.43495282      -5.67044981      -0.00189487       0.00038750      -0.00408822
O        5.80857535      -3.53018039      -5.66284782      -0.00744591       0.00121514       0.00443916
H        7.91623431       1.18625604      -8.21876887       0.00035650      -0.00430135       0.00195686
C        5.81188183       0.68763340      -5.59718863      -0.00032680       0.00139794       0.00257006
C       -6.52325816      -1.41199337      -6.55118391      -0.00261626      -0.00066412      -0.00146492
O       -8.09867499      -1.25356331      -8.39002336      -0.00145353       0.00088364      -0.00021812
H       -7.98762986      -2.23825349      -8.22143075      -0.00306101       0.00186128      -0.00172624
C       -5.71560691       0.67382488      -5.60942717      -0.00000466      -0.00153018      -0.00193649
H       -5.12770591      -1.28736325      -4.93168483      -0.00226494      -0.00118639      -0.00224206
C       -7.31322408      -0.66139916      -7.47829100      -0.00205048      -0.00068294      -0.00137405
C       -6.48504873       2.89984666      -6.50840416       0.00036229       0.00639581      -0.00142161
C       -6.53156167      -2.88930675      -6.56345489      -0.00303929       0.00061100      -0.00180068
C       -5.73281097      -0.71705817      -5.63341775      -0.00218912      -0.00297581      -0.00252976
O       -5.74020134       3.46597037      -5.63543430       0.00528953       0.00038719      -0.00002050
C       -6.49272729       1.40860040      -6.52221308      -0.00066427      -0.00113613      -0.00299477
H       -7.88442581       1.29934423      -8.16022883      -0.00052033       0.00083202      -0.00068319
O       -5.75885655      -3.48941520      -5.75573289      -0.00332124      -0.00049227      -0.00240498
O       -7.22559664       3.48268575      -7.37441671      -0.00418264       0.00076597      -0.00242398
O       -7.32832682      -3.47808193      -7.39845358      -0.00247104      -0.00010897      -0.00122365
H       -5.10008268       1.20311661      -4.88470694       0.00160309      -0.00042834      -0.00083301
C       -7.28140089       0.74038602      -7.44952583      -0.00205913      -0.00226170      -0.00286602
C        6.54265643       6.46682393      -1.46789067       0.00074759       0.00030819      -0.00258935
O        4.71838079       4.87568500      -1.30217038      -0.00289460       0.00002307      -0.00157467
H        4.86310223       5.01058137      -2.28805093      -0.00039039      -0.00007626      -0.00166300
C        7.50774126       7.25677985       0.61496916       0.00247774       0.00230935      -0.00632960
H        8.16167748       7.86245879      -1.34918608       0.00040096      -0.00040237      -0.00001061
C        5.63098547       5.66253667      -0.71357858      -0.00186413      -0.00012820      -0.00265730
C        6.62643261       6.47355899       2.84455519       0.00528995       0.00455708       0.01626992
C        6.51289730       6.47109597      -2.94544456       0.00114429      -0.00054529       0.00026674
C        7.46766854       7.25127284      -0.77597200       0.00118384       0.00101845      -0.00422127
O        7.51068776       7.20226304       3.41554971       0.00211731       0.00186052      -0.00449974
C        6.60588964       6.47078888       1.35321447       0.00176575       0.00096544       0.00279743
H        4.97668614       5.06799538       1.24918816      -0.00305875       0.00026233       0.00113158
O        7.33625379       7.22696488      -3.54860945      -0.00010131      -0.00039450      -0.00151366
O        5.75070338       5.74244546       3.42451108      -0.00584324      -0.00396016      -0.00099094
O        5.65035732       5.70420299      -3.53148309       0.00210719      -0.00186942       0.00069929
H        8.23599157       7.87061880       1.14150395      -0.00129713      -0.00029849      -0.00048286
C        5.67694871       5.68100804       0.68797780       0.00069402       0.00208180       0.00156530
C        6.60435911      -1.44109368       6.50572097       0.00009968       0.00025129       0.00195697
O        8.24942792      -1.30433236       8.28507783      -0.00027277      -0.00237198       0.00109388
H        8.11541144      -2.28736928       8.12417467       0.00089277      -0.00412144       0.00069741
C        5.76780328       0.65575987       5.61583977      -0.00006536      -0.00237823       0.00093414
H        5.15341300      -1.29651708       4.93677847       0.00062933      -0.00120537       0.00379523
C        7.43353788      -0.70106105       7.40808773      -0.00235003       0.00069341      -0.00224916
C        6.58454531       2.87287675       6.49446025      -0.00502740      -0.02095831      -0.00473255
C        6.60887666      -2.91755592       6.50311250      -0.00233299       0.00030544      -0.00115659
C        5.78397458      -0.73550661       5.62344519      -0.00027154       0.00193895       0.00150088
O        5.78843930       3.44183930       5.66909352       0.00751122      -0.00058339       0.00506557
C        6.58505300       1.38004260       6.50129924      -0.00096587      -0.00145218      -0.00089056
H        8.04190596       1.25285470       8.07975008       0.00223187      -0.00161420      -0.00053801
O        5.83114131      -3.50674480       5.68850203      -0.00179159      -0.00281768       0.00425779
O        7.37995515       3.44678756       7.31441750      -0.00440581       0.00400021      -0.00422875
O        7.40176352      -3.51908736       7.32932840       0.00390969      -0.00315425      -0.00064509
H        5.12269333       1.19335524       4.92343155       0.00226708      -0.00528761       0.00234482
C        7.40832374       0.70096056       7.39046235      -0.00221132       0.00339366      -0.00327045
C        6.55188793      -6.59523126      -1.47839358      -0.00003912       0.00066968      -0.00053699
O        8.35047022      -8.21864064      -1.34097748      -0.00101969      -0.00053004       0.00093841
H        8.18773155      -8.08758071      -2.32433800      -0.00102853      -0.00053709       0.00095027
C        5.65180842      -5.76801076       0.61819002      -0.00143217       0.00219754      -0.00141422
H        4.96546276      -5.16445022      -1.33472255      -0.00078125       0.00300846      -0.00298982
C        7.46295448      -7.41383659      -0.73794490      -0.00103387       0.00039768      -0.00041381
C        6.55328848      -6.55921678       2.83441900       0.00118051      -0.00314997       0.00276583
C        6.55514612      -6.59451167      -2.95509621       0.00054999       0.00060267       0.00013011
C        5.65945635      -5.78598603      -0.77291316      -0.00101351       0.00231350      -0.00183191
O        5.73904491      -5.75706964       3.41248205      -0.00111077       0.00065953       0.00003350