448
Lattice="26.06594689805556 0.0 0.0 0.0 26.06594689805556 0.0 0.0 0.0 26.06594689805556" Properties=species:S:1:pos:R:3:forces:R:3 energy=-3064.900526362175 stress="9.083533571673614e-06 -2.1819303931530574e-06 5.662995303001283e-06 -2.1819303931530574e-06 8.525226103906543e-06 3.012053610525307e-06 5.662995303001283e-06 3.012053610525307e-06 -3.7808081228566043e-06" pbc="T T T"
C        6.58880483      14.40687369       6.39023242       0.00118900       0.00014793      -0.00089231
O        8.33566190      14.26558953       4.71241195       0.00095291      -0.00063177      -0.00051900
H        8.18550999      15.24968531       4.85645447       0.00139844      -0.00064104      -0.00097136
C        5.71507870      12.31403505       7.25220954      -0.00052895       0.00053533      -0.00119934
H        5.04926142      14.26937132       7.87225527       0.00108231       0.00101171      -0.00137609
C        7.47356867      13.66492779       5.54541194       0.00081712      -0.00023034      -0.00059715
C        6.58737412      10.09558439       6.43337742       0.00049629      -0.00090852       0.00084968
C        6.58962767      15.88422873       6.38442749       0.00176167       0.00030402      -0.00048530
C        5.72230660      13.70481824       7.23041056       0.00066351       0.00060766      -0.00125597
O        5.75906197       9.52403268       7.22188160       0.00249544      -0.00151022       0.00268362
C        6.58511991      11.58738708       6.42045310      -0.00008000      -0.00005227      -0.00040754
H        8.13189171      11.70993869       4.92871093       0.00028217      -0.00044137       0.00000075
O        5.77430531      16.47527084       7.15635972       0.00225096       0.00046678      -0.00001434
O        7.42285833       9.52280685       5.65067534       0.00003638       0.00026224      -0.00054874
O        7.42207655      16.48019032       5.59269635       0.00163070       0.00029869      -0.00061117
H        5.03651523      11.77820459       7.91295832      -0.00147872       0.00094201      -0.00166577
C        7.45539590      12.26293952       5.57500733       0.00032233      -0.00016800      -0.00035441
C      -14.33911998       6.50152934       6.47407749      -0.00041074       0.00232670      -0.00129054
O      -14.18996912       8.38365265       4.94902566       0.00085582       0.00055356      -0.00089255
H      -15.17410114       8.20871238       5.05744636      -0.00019295       0.00026661      -0.00351116
C      -12.24789169       5.55899524       7.26740073      -0.00203548      -0.00024482      -0.00055099
H      -14.20560280       4.84685531       7.82671290      -0.00083971       0.00071705      -0.00086334
C      -13.59317220       7.45520684       5.71088166       0.00132237       0.00119968      -0.00137519
C      -10.02515567       6.49986830       6.53230657       0.00162504       0.00528264       0.00157759
C      -15.81560174       6.50444486       6.46062959      -0.00041201       0.00320175       0.00070588
C      -13.63923110       5.56973476       7.24318549      -0.00114647       0.00095248      -0.00097776
O       -9.45024408       5.62503729       7.26916157      -0.00930872      -0.00117341      -0.00204970
C      -11.51769416       6.49607702       6.51557252      -0.00161216      -0.00071386      -0.00022726
H      -11.63636648       8.16587480       5.16263315       0.00121118      -0.00194982      -0.00015118
O      -16.41347170       5.66276442       7.20178754      -0.00067320       0.00936446       0.00625178
O       -9.45246999       7.38212859       5.80424901       0.01244706      -0.00048088       0.01690773
O      -16.40934855       7.36367338       5.69696762      -0.00026740      -0.00114744      -0.00419447
H      -11.71480583       4.82548338       7.86927884      -0.00070632       0.00086213      -0.00119300
C      -12.19135763       7.43609729       5.74625515       0.00101722      -0.00092194      -0.00026680
C       -6.36676963      11.64393377       6.51958541       0.00237251       0.00241646       0.00236731
O       -4.71451099      11.80985113       8.28748586       0.00027074       0.00182540       0.00248734
H       -4.84910646      10.82375636       8.14477654      -0.00241995       0.00166465      -0.00113242
C       -7.22483201      13.72458140       5.61102426      -0.00029248      -0.00096163      -0.00097357
H       -7.82342496      11.75976214       4.95402930       0.00409504      -0.00105680       0.00255495
C       -5.54031646      12.39863949       7.40994352       0.00123432       0.00239885       0.00221179
C       -6.43707897      15.95520477       6.48143965      -0.00230761       0.00223984      -0.00007760
C       -6.35769742      10.16634830       6.53837351      -0.00579555      -0.00017496      -0.00066578
C       -7.19562052      12.33385652       5.63237450       0.00203371      -0.00044286       0.00145005
O       -7.20888875      16.52143773       5.63017878      -0.00537869       0.00120654       0.00167890
C       -6.41466487      14.46418514       6.49010481      -0.00205421       0.00131626      -0.00091596
H       -4.94893432      14.36251984       8.06373365      -0.00068322       0.00333667       0.00055211
O       -7.12484029       9.56758689       5.72407960       0.00208446      -0.00532993       0.01862504
O       -5.67995839      16.53920564       7.33148846      -0.00002628       0.00170643      -0.00197225
O       -5.57150278       9.57815531       7.38185174       0.00366861       0.00533557      -0.00009210
H       -7.87554914      14.24973084       4.91466565      -0.00050854      -0.00058580      -0.00229892
C       -5.57991169      13.80030739       7.38040783      -0.00069459       0.00245795       0.00033271
C      -11.55455390      -6.52908142       6.44521426       0.00091938      -0.00360691      -0.00370443
O      -11.68133540      -8.30015847       4.79138405      -0.00260484      -0.00506678      -0.00346789
H      -10.69897064      -8.13649489       4.93042708      -0.00252431      -0.00554512      -0.00440361
C      -13.65785736      -5.64570319       7.27460859       0.00379879      -0.00039819      -0.00174085
H      -11.70972837      -4.96791698       7.90377669       0.00534433      -0.00436226      -0.00519750
C      -12.28916322      -7.42942588       5.61045210      -0.00096542      -0.00352820      -0.00309063
C      -15.86804252      -6.53700892       6.45247604       0.00092547       0.00358052       0.00086791
C      -10.07689315      -6.52560753       6.44624076       0.00007502      -0.00534230      -0.00374972
C      -12.26643561      -5.65190560       7.26649128       0.00316554      -0.00280894      -0.00360751
O      -16.44864114      -5.68112969       7.20610368       0.00301521       0.00531736       0.00061432
C      -14.37646825      -6.53305795       6.45401145       0.00114248       0.00120710      -0.00056095
H      -14.23682436      -8.10934358       4.99509078      -0.00428261      -0.00127746       0.00007182
O       -9.49007194      -5.71672092       7.22778576       0.00023038      -0.00686881      -0.00222461
O      -16.43663710      -7.39733832       5.69453934      -0.00090078       0.00333150       0.00251335
O       -9.47369766      -7.34990279       5.64856524       0.00025628      -0.00406218      -0.00429781
H      -14.20095127      -4.95455804       7.91645714       0.00625232       0.00012202      -0.00112574
C      -13.69140838      -7.41801457       5.63198294      -0.00141207      -0.00123763      -0.00116909
C        6.48260536      -6.58933654      14.36642914      -0.00140940      -0.00119238       0.00123563
O        4.76587942      -8.29702242      14.21644179      -0.00098498      -0.00145608       0.00023616
H        4.90718186      -8.14916258      15.20072900      -0.00161340      -0.00155733       0.00036400
C        7.37977678      -5.74065627      12.27829408      -0.00082789      -0.00029486       0.00186057
H        8.00265690      -5.08575398      14.23561034      -0.00157274      -0.00111184       0.00257553
C        5.62242688      -7.45547554      13.61902513      -0.00094936      -0.00117626       0.00063761
C        6.55721053      -6.59039126      10.05438968      -0.00184671       0.00251618       0.00112872
C        6.46434175      -6.58479998      15.84257376      -0.00176413      -0.00141443       0.00132539
C        7.34822334      -5.74476456      13.66895918      -0.00122740      -0.00090908       0.00185825
O        7.38140842      -5.78517755       9.49682232      -0.00729530       0.00825712       0.00137243
C        6.53294629      -6.59135795      11.54653451      -0.00103372       0.00057076       0.00115360
H        5.00289346      -8.10021573      11.65922278       0.00024703      -0.00084093       0.00032636
O        7.24693893      -5.77858507      16.43628217      -0.00152747      -0.00180048       0.00150937
O        5.75233607      -7.39204085       9.46748324       0.00275106      -0.00176775       0.00065503
O        5.65505545      -7.39866441      16.43955745      -0.00226310      -0.00118934       0.00083181
H        8.06032309      -5.07789389      11.74728939      -0.00031011      -0.00024640       0.00267386
C        5.66156043      -7.44000451      12.21725050      -0.00039387      -0.00054296       0.00064453
C        6.49866770      11.57637465      -6.60830450      -0.00199531       0.00216526       0.00090328
O        4.85196746      11.71823593      -8.38501283       0.00185072       0.00128538      -0.00171642
H        4.99097177      10.73412244      -8.23162405      -0.00048393       0.00134508      -0.00033475
C        7.32822844      13.67004402      -5.70468297      -0.00030176       0.00127955      -0.00022604
H        7.94650988      11.71455985      -5.03725889       0.00046872      -0.00002481       0.00062410
C        5.66851542      12.31866702      -7.50693267      -0.00046091       0.00230471      -0.00098886
C        6.51797724      15.88878184      -6.58533976      -0.00065016       0.00001405       0.00016052
C        6.49372905      10.09936874      -6.60967400      -0.00360464       0.00177509       0.00273962
C        7.31584648      12.27905481      -5.72082763       0.00001654       0.00141036       0.00081334
O        7.28332105      16.46185290      -5.73479875      -0.00166529       0.00059620       0.00070780
C        6.51375432      14.39711930      -6.59068560      -0.00035328       0.00058580      -0.00053279
H        5.05957488      14.27378355      -8.17256689       0.00063702       0.00005727      -0.00082741
O        7.25851237       9.50695605      -5.78692331      -0.00320801       0.00239574       0.00637278
O        5.75319249      16.46445350      -7.43480051      -0.00022091       0.00025101      -0.00005259
O        5.70923015       9.50306551      -7.44814234      -0.00531247       0.00218221       0.00031986
H        7.96880875      14.20517986      -5.00642511      -0.00053085       0.00076422      -0.00022119
C        5.69278183      13.72079911      -7.48374583       0.00024427       0.00156261      -0.00078127
C        6.63310883       6.51912143      11.56142359       0.00753479      -0.00459799      -0.00347803
O        8.40412903       4.86601236      11.69770421       0.00533762       0.00164088       0.00695860
H        8.26112740       5.02356476      10.71446923       0.00633654      -0.00659749       0.00880760
C        5.72196090       7.33038819      13.65917899      -0.00046171       0.00356693      -0.00879919
H        5.05565580       7.96118844      11.70735873       0.00900500      -0.00453074      -0.00307018
C        7.52508785       5.67931202      12.30143346       0.00350622       0.00226649      -0.00437233
C        6.59442246       6.50685229      15.87472551      -0.00712079      -0.00164723       0.01205607
C        6.64456272       6.52701757      10.08372133       0.00185280      -0.01242295       0.00886181
C        5.74030219       7.32785506      12.26791244       0.00786862      -0.00340840      -0.00771957
O        5.75664179       7.28815357      16.44500233      -0.01718050      -0.00396001       0.00040578
C        6.60531609       6.51042779      14.38326983       0.00102637       0.00014137      -0.00182590
H        8.17859761       5.04733842      14.25274299       0.00399944      -0.00023901       0.00863494
O        5.81704692       7.28483518       9.49145227       0.00289751      -0.02301087      -0.00208580
O        7.42469899       5.72365902      16.45361922      -0.00101341      -0.00370807       0.00281804
O        7.49957736       5.75763965       9.48617920      -0.00425453      -0.00875305       0.00160998
H        5.02330954       7.96777073      14.19753549      -0.00194725       0.00387364      -0.00199992
C        7.49542950       5.68957904      13.70358257       0.00509114      -0.00026645      -0.00204470
C       -6.54272660      11.61812859      -6.48870081       0.00171516       0.00273864      -0.00049942
O       -8.22630649      11.77404792      -4.74858148      -0.00204489       0.00183927      -0.00070686
H       -8.07980460      10.78883652      -4.88700078      -0.00075458       0.00189835       0.00125198
C       -5.69172948      13.70462853      -7.38923835       0.00070346       0.00138705      -0.00005189
H       -5.05456981      11.74392998      -8.02257638       0.00104186       0.00036734      -0.00023289
C       -7.39690064      12.36773129      -5.61916987      -0.00032681       0.00052852      -0.00019342
C       -6.53063010      15.93056201      -6.55395816      -0.00094882      -0.00020606      -0.00042720
C       -6.54026201      10.14112627      -6.46872254       0.00126884       0.00281482      -0.00201490
C       -5.70376562      12.31379633      -7.36117859       0.00168702       0.00179879      -0.00085706
O       -5.70316824      16.49816015      -7.34810789      -0.00086630       0.00029827      -0.00089812
C       -6.53384947      14.43888463      -6.53570623      -0.00027642      -0.00010618      -0.00007787
H       -8.03649584      14.32791094      -4.99870212      -0.00024388       0.00018317      -0.00035643
O       -5.75436737       9.54276271      -7.26700511       0.00096482       0.00109701      -0.00050118
O       -7.35885989      16.51094444      -5.76984656      -0.00021938       0.00000293      -0.00128016
O       -7.33907682       9.55110046      -5.63927830       0.00022528       0.00487075      -0.00274587
H       -5.03049181      14.23414320      -8.07229572       0.00096039       0.00081888       0.00033311
C       -7.38019981      13.76960433      -5.66111891      -0.00032187       0.00007148      -0.00006299
C      -14.43525317       6.51418765      -6.53847638       0.00065330      -0.00947567      -0.00886041
O      -14.28810757       4.73248811      -8.17920105       0.00376970      -0.00240369      -0.00547192
H      -15.27286929       4.88901294      -8.04209323       0.00289991      -0.00899821      -0.00312995
C      -12.34132106       7.41182825      -5.70124121      -0.00213842      -0.00103468      -0.00283845
H      -14.29650085       8.08429840      -5.08731728      -0.00831998      -0.00655730      -0.00598324
C      -13.69029991       5.61444335      -7.36508335       0.00281736      -0.00566553      -0.00782487
C      -10.12092296       6.53073277      -6.51032531      -0.00292931      -0.00032463       0.00211839
C      -15.91298650       6.50638148      -6.54871113      -0.00099162      -0.00894738      -0.00360086
C      -13.73291138       7.39957732      -5.71774680      -0.00370826      -0.00636998      -0.00696983
O       -9.54969750       7.35950885      -5.72075139      -0.00574497       0.00177784       0.00217953
C      -11.61271189       6.52808549      -6.51722192      -0.00289262      -0.00331852      -0.00393291
H      -11.73664235       4.94848974      -7.97472954       0.00679897       0.00256886       0.00145654
O      -16.51253496       7.32688986      -5.78798030      -0.00322061      -0.00485505      -0.00506248
O       -9.54422162       5.70261675      -7.29763076      -0.00128268      -0.00171988       0.00487794
O      -16.50427139       5.66188079      -7.33290212       0.00315848      -0.01561169      -0.00081939
H      -11.80485806       8.10558787      -5.05681571      -0.00713882       0.00378135       0.00206118
C      -12.28827210       5.63724489      -7.34037325       0.00100731      -0.00206336      -0.00429803
C       -6.47603258      -6.52217611     -14.47729339       0.00092567      -0.00102434      -0.00003462
O       -4.67424530      -8.13984738     -14.31844813       0.00202784      -0.00069336       0.00075314
H       -4.82146256      -8.00402367     -15.30416053       0.00182033      -0.00101331       0.00105244
C       -7.39618726      -5.68822576     -12.39217968       0.00010306      -0.00136005      -0.00098576
H       -8.06162214      -5.08895119     -14.35456166       0.00009572      -0.00169698      -0.00000969
C       -5.57029814      -7.33663542     -13.72698643       0.00071667      -0.00040771       0.00000368
C       -6.52277095      -6.49049961     -10.16697366      -0.00109163       0.00130315       0.00424378
C       -6.46524803      -6.53376119     -15.95483693       0.00085012      -0.00069378       0.00142874
C       -7.37441535      -5.70938944     -13.78309028       0.00033830      -0.00162366      -0.00099603
O       -7.37429612      -5.72358589      -9.59559070      -0.00118157       0.00484908       0.00484098
C       -6.50802044      -6.49344314     -11.65757589       0.00035351       0.00060030       0.00236655
H       -4.91146877      -7.93305026     -11.76656752       0.00148255      -0.00059272       0.00217293
O       -7.30058987      -5.79175486     -16.55600952       0.00156481      -0.00094747       0.00069125
O       -5.67789451      -7.25853812      -9.58905608      -0.00124596      -0.00129778       0.00390803
O       -5.60396133      -7.30165475     -16.54135564       0.00019397      -0.00037687       0.00092165
H       -8.10070980      -5.04949103     -11.86309708      -0.00079281      -0.00197824      -0.00052190
C       -5.60329999      -7.30845403     -12.32543405       0.00084979      -0.00028819       0.00121128
C       -6.49948827       6.54816879     -11.58851547      -0.00109885      -0.00060301       0.00107431
O       -8.29037761       4.91861337     -11.75563111       0.00008864      -0.00127941       0.00131201
H       -8.14145678       5.04791395     -10.76946035       0.00015686      -0.00023376       0.00144430
C       -5.58287445       7.39375996     -13.67104268      -0.00073221      -0.00047227       0.00124183
H       -4.92784995       7.99743519     -11.70658190      -0.00134148      -0.00036674       0.00143243
C       -7.39638585       5.72731639     -12.34300210      -0.00046351      -0.00107221       0.00088506
C       -6.43538151       6.57637277     -15.90062739      -0.00034738      -0.00200571       0.00014857
C       -6.51082467       6.52956586     -10.11120547      -0.00143852      -0.00094386       0.00103643
C       -5.60783137       7.37082717     -12.27996587      -0.00110829      -0.00050815       0.00124539
O       -5.62520209       7.38542064     -16.47137886       0.00136590      -0.00126651       0.00103404
C       -6.45836295       6.57810286     -14.40931326      -0.00024885      -0.00056026       0.00083188
H       -8.03982882       5.12176909     -14.30584925       0.00069106      -0.00111868       0.00034174
O       -5.68879105       7.28462064      -9.50527439      -0.00128737      -0.00035332       0.00117468
O       -7.23355484       5.75861330     -16.47684690       0.00138927      -0.00065627       0.00049866
O       -7.35779257       5.74369308      -9.52784379      -0.00127804      -0.00070911       0.00132143
H       -4.88449014       8.04089027     -14.19814464      -0.00064737      -0.00025649       0.00163481
C       -7.35728794       5.75439824     -13.74450612       0.00006286      -0.00095293       0.00075843
C      -11.63742434      -6.50653345      -6.52603428       0.00076604       0.00060841       0.00047588
O      -11.79240413      -8.24101591      -4.83511486       0.00096684      -0.00088079       0.00051932
H      -10.80746264      -8.10028520      -4.97826881       0.00106460      -0.00024239      -0.00099488
C      -13.72477023      -5.63648123      -7.40717115      -0.00188678       0.00042185       0.00065440
H      -11.76444289      -4.97636979      -8.01852436      -0.00138283      -0.00007779       0.00078749
C      -12.38571063      -7.38278123      -5.67791792       0.00028534      -0.00110179       0.00082611
C      -15.94823854      -6.50953336      -6.59573481      -0.00043685      -0.00016307       0.00077775
C      -10.16143736      -6.51215963      -6.51277080       0.00291093      -0.00044627       0.00048878
C      -12.33384233      -5.64461157      -7.37575450      -0.00152728      -0.00033379       0.00107049
O      -16.52577171      -5.70754109      -7.41011818      -0.00078986       0.00036607       0.00168329
C      -14.45745337      -6.49936946      -6.57350055      -0.00060667      -0.00039304       0.00077096
H      -14.34438061      -8.03029422      -5.06455836      -0.00033542      -0.00133663       0.00050559
O       -9.56325071      -5.69246074      -7.27769994       0.00533774       0.00334220      -0.00101489
O      -16.52023631      -7.32493449      -5.79248467      -0.00019078      -0.00094531       0.00029099
O       -9.56886918      -7.34975298      -5.72469794       0.00018035      -0.00199434      -0.00001299
H      -14.25547085      -4.96287263      -8.07711938      -0.00124332       0.00105302       0.00102155
C      -13.78707102      -7.36118849      -5.71487567      -0.00042486      -0.00101057       0.00045444
C        6.56316953      -1.45693952      -6.55887810       0.00240077       0.00147143      -0.00317678
O        8.06696521      -1.31350982      -8.45790382       0.00244251       0.00376745      -0.00281728
H        7.93204859      -2.29743115      -8.30021444       0.00354611       0.00302735      -0.00419754
C        5.81096670       0.63787260      -5.59033017       0.00264010       0.00133297      -0.00111798
H        5.23396954      -1.31767180      -4.88587711       0.00366007      -0.00061038      -0.00242475
C        7.32745255      -0.71393795      -7.51333374       0.00227188       0.00284861      -0.00270705
C        6.56412118       2.85770287      -6.52265778       0.00176708       0.00254606       0.00077573
C        6.55566512      -2.93433254      -6.57276395       0.00261784       0.00120331      -0.00432218
C        5.81633508      -0.75349170      -5.61150708       0.00279950       0.00145049      -0.00203009
O        5.82728411       3.43240757      -5.64833930      -0.00395563       0.00230886      -0.00715481
C        6.56465565       1.36542416      -6.52868993       0.00243565       0.00270910      -0.00002461
H        7.90341985       1.24005484      -8.20923615       0.00109722       0.00350073      -0.00075556
O        5.85239445      -3.53000786      -5.70058814       0.00209767       0.00091458      -0.00470526
O        7.30388461       3.43260826      -7.39520223       0.00821839       0.00196376       0.00709803
O        7.26966609      -3.52956713      -7.47560619       0.00318098       0.00193312      -0.00433365
H        5.22262927       1.17319737      -4.84750430       0.00230915      -0.00022871      -0.00122875
C        7.31655904       0.68823322      -7.47976030       0.00164868       0.00308777      -0.00079198
C       -6.52610539      -1.41492573      -6.55180563      -0.00250165       0.00069421       0.00046545
O       -8.10550894      -1.25477787      -8.38599653      -0.01099742      -0.00064632      -0.01064906
H       -7.99524464      -2.23970832      -8.21754256      -0.00341335       0.00134218      -0.00323464
C       -5.71064330       0.67114182      -5.61659616      -0.00084283       0.00080210      -0.00379856
H       -5.12535814      -1.28938419      -4.93475578      -0.00959518      -0.00446570      -0.01126153
C       -7.31643712      -0.66349003      -7.47711875      -0.00668924      -0.00095672      -0.00701368
C       -6.47897703       2.89825240      -6.51633718      -0.00031945       0.00397150       0.00694936
C       -6.53824040      -2.89243294      -6.56569386       0.00502109       0.00352390       0.00503273
C       -5.73132878      -0.72012672      -5.63694342      -0.00331834       0.00326192      -0.00427897
O       -5.72924148       3.46388611      -5.64696225      -0.00201843       0.00898909       0.00447297
C       -6.48880801       1.40648301      -6.52844981       0.00322496       0.00396705       0.00091039
H       -7.88699704       1.29543430      -8.16168554       0.00013210       0.00859776      -0.00012907
O       -5.76587701      -3.49318373      -5.75868809      -0.00372200      -0.00507928      -0.00569631
O       -7.22326064       3.48103951      -7.37910112      -0.00424032       0.00025408       0.00690435
O       -7.33627923      -3.48057763      -7.40062371       0.00226809       0.00347826       0.00072473
H       -5.09180709       1.20208957      -4.89563537       0.00096690      -0.01050628      -0.00140690
C       -7.28213580       0.73816850      -7.45135824      -0.00024068       0.00104320      -0.00185093
C        6.54329145       6.46659989      -1.46226390      -0.00136427       0.00018046       0.00067165
O        4.71126985       4.88454263      -1.29680336      -0.00182195       0.00029140       0.00030538
H        4.85726531       5.01838133      -2.28281562      -0.00166360      -0.00158120       0.00042176
C        7.50888264       7.25625315       0.62023741       0.00019821      -0.00011704      -0.00134262
H        8.16664308       7.85765671      -1.34374747       0.00015801      -0.00065473      -0.00256749
C        5.62773533       5.66670281      -0.70806586      -0.00174806      -0.00018884       0.00048374
C        6.62582124       6.47452746       2.85008536      -0.00104798       0.00131647      -0.00180461
C        6.51297465       6.47093102      -2.93950638      -0.00195647       0.00002653       0.00023076
C        7.47020827       7.24917379      -0.77066042       0.00035060       0.00027785      -0.00072473
O        7.50691570       7.20720198       3.42020626       0.00097889      -0.00072835      -0.00201179
C        6.60514305       6.47228874       1.35863527      -0.00032560       0.00056694      -0.00157642
H        4.97080255       5.07543519       1.25499716      -0.00049071       0.00064888      -0.00060316
O        7.33905341       7.22322296      -3.54289631      -0.00213789       0.00428039       0.00101430
O        5.75348853       5.73883303       3.42918881      -0.00352319       0.00416877      -0.00155095
O        5.64685871       5.70811585      -3.52556999      -0.00146208      -0.00405135       0.00081368
H        8.23736263       7.86947047       1.14719163       0.00015504      -0.00091584      -0.00214491
C        5.67358435       5.68548986       0.69357198      -0.00059205       0.00035942      -0.00002288
C        6.59785514      -1.43820698       6.50926275       0.00120092       0.00018802       0.00175128
O        8.24452520      -1.31269392       8.28767546      -0.00091949       0.00231758       0.00359159
H        8.09821537      -2.29507338       8.13123145       0.00344718       0.00239470       0.00104004
C        5.77668669       0.66426647       5.61961071      -0.00096690      -0.00176639       0.00037401
H        5.15161136      -1.28344603       4.93715672       0.00085713      -0.00155561       0.00295308
C        7.43221784      -0.70358658       7.41124891      -0.00039527       0.00047341       0.00210661
C        6.59486547       2.87496131       6.50651080      -0.00094146       0.00133553      -0.00139058
C        6.59448939      -2.91469863       6.50516813       0.00270947       0.00105853       0.00220211
C        5.78418712      -0.72686433       5.62555718       0.00030065      -0.00118123       0.00193122
O        5.81656095       3.44852534       5.66853446      -0.00309260      -0.00000277      -0.00045818
C        6.59525048       1.38348649       6.50836106      -0.00134588      -0.00031977       0.00015625
H        8.05477479       1.24500524       8.08426809      -0.00116386       0.00206467       0.00144765
O        5.82687906      -3.50065891       5.67885640      -0.00127756      -0.00043656       0.00736116
O        7.37305539       3.45178530       7.34464475       0.00173645       0.00056262      -0.00365354
O        7.37232610      -3.52018359       7.34306907       0.00775774       0.00113872      -0.00293398
H        5.13648177       1.20597880       4.92602467      -0.00057658      -0.00196885       0.00004424
C        7.41642307       0.69880091       7.39481162      -0.00106792       0.00075765       0.00141875
C        6.55116707      -6.59746212      -1.47339170      -0.00050626       0.00001356       0.00107281
O        8.34395227      -8.22610561      -1.33297030      -0.00106405      -0.00063515       0.00185544
H        8.18395716      -8.09322281      -2.31692795      -0.00053078      -0.00067057       0.00186326
C        5.65142282      -5.76343420       0.62030044      -0.00044415       0.00058685       0.00101819
H        4.97264120      -5.15802819      -1.33537182      -0.00024064       0.00020290       0.00092701
C        7.45817412      -7.41852680      -0.73173253      -0.00094786      -0.00015523       0.00137893
C        6.54877958      -6.55705558       2.83796224       0.00099489       0.00215114       0.00140641
C        6.55243265      -6.60114358      -2.95100519       0.00015664       0.00034558       0.00103541
C        5.66173292      -5.78249284      -0.77065942      -0.00038104       0.00018628       0.00099745
O        5.72723566      -5.76115292       3.41397567       0.00263641       0.00373275       0.00152998